! Matrix data file written by TouchstoneData, EPCOS AG
! FILENAME: "ansys_B4322_02_WB.s4p"
! COMMENT: "(B4322_02_WB.s4p) Epcos AG 2/21/2013 5:13:47"
! INFO: nport=4, nfreq=1601
! DATE: "Tue Mar 19 16:51:02 2013"
! USER: "Daniel Harbusch"
!
! port | pin | signal
! -----|-----|--------
!   1  |  3  |  NON-GPS/GLONASS out
!   2  |  6  |  ANT input
!   3  |  1  |  GPS/GLONASS balanced out
!   4  |  8  |  GPS/GLONASS balanced out
! --------------------
! 
# MHZ S MA R 50
! freq  magS11 angS11  magS12 angS12  magS13 angS13  magS14 angS14  ...
5.000000000E+01  9.967020E-01 -8.924340E+00  3.960376E-04 1.512706E+02  3.672539E-05 1.461532E+02  7.242700E-05 1.375609E+01 
3.830657E-04 1.419339E+02  9.984216E-01 -1.083842E+01  3.682815E-04 7.644710E+01  2.041151E-04 7.370487E+01 
6.082717E-05 1.273870E+02  3.545688E-04 8.911088E+01  9.985539E-01 -3.743767E+00  4.368000E-03 8.344196E+01 
8.035970E-06 8.794515E+01  2.991061E-04 8.570378E+01  4.352497E-03 8.270551E+01  9.976080E-01 -3.565915E+00 
5.371875000E+01  9.970132E-01 -9.607181E+00  1.509719E-04 1.411315E+02  1.256841E-05 6.719616E+01  1.313164E-05 1.465252E+02 
1.353036E-04 1.430693E+02  9.977231E-01 -1.157825E+01  3.818572E-04 8.065048E+01  2.557736E-04 8.626179E+01 
8.675180E-06 1.636555E+02  3.941872E-04 7.421068E+01  9.979963E-01 -3.930815E+00  4.503706E-03 8.244394E+01 
1.126633E-05 1.541691E+02  2.531466E-04 9.204683E+01  4.513061E-03 8.247821E+01  9.976147E-01 -3.838974E+00 
5.743750000E+01  9.981657E-01 -1.026495E+01  2.540269E-04 1.686333E+02  3.885481E-05 -1.613677E+02  3.990418E-05 -1.789179E+02 
2.247633E-04 1.634662E+02  9.987948E-01 -1.238774E+01  3.736605E-04 7.761642E+01  2.358245E-04 7.558845E+01 
2.701966E-05 1.699070E+02  3.927513E-04 7.913593E+01  9.985882E-01 -4.312080E+00  4.755840E-03 8.421559E+01 
1.812459E-05 1.530574E+02  2.257366E-04 8.004243E+01  4.783675E-03 8.450778E+01  9.982220E-01 -4.131016E+00 
6.115625000E+01  9.967512E-01 -1.098541E+01  1.601120E-04 6.987802E+01  2.734307E-05 1.571541E+02  2.118699E-05 1.254629E+02 
1.478472E-04 6.566306E+01  9.980792E-01 -1.324893E+01  4.397963E-04 8.207317E+01  2.740584E-04 8.042187E+01 
4.412492E-05 -1.200771E+02  4.421649E-04 8.114711E+01  9.981069E-01 -4.516236E+00  5.130197E-03 8.423138E+01 
1.625598E-05 1.607138E+02  2.750173E-04 8.229441E+01  5.158278E-03 8.395179E+01  9.980765E-01 -4.376129E+00 
6.487500000E+01  9.981092E-01 -1.160731E+01  3.403282E-04 -1.669148E+02  4.422698E-05 1.667666E+02  2.611303E-05 1.762138E+02 
3.158688E-04 -1.680117E+02  9.977999E-01 -1.402120E+01  4.107699E-04 7.787652E+01  2.743567E-04 7.461546E+01 
1.968520E-05 -1.657893E+02  3.945603E-04 7.604896E+01  9.985553E-01 -4.792863E+00  5.425208E-03 8.474590E+01 
2.183068E-05 -1.678329E+02  2.808079E-04 7.730268E+01  5.434088E-03 8.466529E+01  9.974401E-01 -4.629207E+00 
6.859375000E+01  9.973126E-01 -1.235556E+01  4.509146E-04 -1.701369E+02  1.931372E-05 -7.882827E+01  2.877921E-05 -6.389020E+00 
4.631804E-04 -1.718206E+02  9.978367E-01 -1.491329E+01  4.157266E-04 7.565005E+01  2.884852E-04 7.299810E+01 
5.007204E-05 -6.361299E+01  4.050573E-04 7.859335E+01  9.987161E-01 -5.094087E+00  5.842003E-03 8.467681E+01 
4.510268E-05 -2.989918E+01  2.659452E-04 7.555398E+01  5.849884E-03 8.444621E+01  9.975562E-01 -4.919674E+00 
7.231250000E+01  9.978857E-01 -1.294219E+01  5.110266E-04 -1.369667E+02  1.771859E-05 -1.111159E+02  2.868040E-05 -1.110078E+02 
5.074412E-04 -1.413167E+02  9.975018E-01 -1.553310E+01  4.366224E-04 7.880776E+01  2.767754E-04 8.171503E+01 
6.761299E-06 8.499357E+01  4.273580E-04 8.016129E+01  9.984598E-01 -5.337186E+00  6.071078E-03 8.372618E+01 
2.436543E-05 -1.657469E+02  2.873178E-04 7.984515E+01  6.075443E-03 8.365094E+01  9.968760E-01 -5.160345E+00 
7.603125000E+01  9.976321E-01 -1.356999E+01  9.503538E-04 -1.548986E+02  9.616717E-06 -1.601361E+02  1.874452E-05 2.319119E+01 
9.489780E-04 -1.574713E+02  9.972181E-01 -1.638390E+01  5.029994E-04 8.722769E+01  3.287217E-04 8.474959E+01 
2.748647E-05 1.437934E+02  5.186178E-04 8.795507E+01  9.989146E-01 -5.648746E+00  6.422172E-03 8.293551E+01 
1.445103E-05 2.113411E+01  3.189262E-04 8.054023E+01  6.412228E-03 8.316639E+01  9.975238E-01 -5.470173E+00 
7.975000000E+01  9.971318E-01 -1.423079E+01  9.291719E-04 -1.420874E+02  3.408843E-05 1.144781E+02  4.296916E-05 -2.046378E+01 
9.222254E-04 -1.409915E+02  9.973509E-01 -1.721602E+01  5.347614E-04 7.267774E+01  3.489205E-04 6.551786E+01 
1.208670E-05 -8.083831E+01  5.451778E-04 7.483301E+01  9.985743E-01 -5.817550E+00  6.702429E-03 8.311358E+01 
2.660187E-05 -2.426103E+01  3.352074E-04 6.395009E+01  6.696098E-03 8.300251E+01  9.980756E-01 -5.693986E+00 
8.346875000E+01  9.973355E-01 -1.497481E+01  1.069078E-03 -1.357315E+02  3.145777E-05 -1.357236E+02  3.616360E-05 -1.088213E+02 
1.058604E-03 -1.361319E+02  9.976669E-01 -1.801739E+01  5.457395E-04 7.663914E+01  3.479492E-04 7.937860E+01 
3.313599E-05 -1.052715E+02  5.288577E-04 7.898137E+01  9.987183E-01 -6.199308E+00  7.008938E-03 8.238103E+01 
3.261389E-05 -1.019322E+02  3.333940E-04 7.632389E+01  7.009804E-03 8.239419E+01  9.976279E-01 -5.979903E+00 
8.718750000E+01  9.972512E-01 -1.565477E+01  1.496197E-03 -1.471666E+02  9.276557E-05 5.728361E+01  6.619791E-05 8.703030E+00 
1.490856E-03 -1.480265E+02  9.970334E-01 -1.882350E+01  6.766194E-04 7.733376E+01  4.900937E-04 6.854913E+01 
1.040171E-04 3.645099E+01  6.626444E-04 7.693278E+01  9.985645E-01 -6.437233E+00  7.259244E-03 8.216452E+01 
5.481306E-05 1.613941E+01  4.712286E-04 6.904167E+01  7.242149E-03 8.212151E+01  9.974067E-01 -6.245740E+00 
9.090625000E+01  9.967522E-01 -1.630060E+01  1.459415E-03 -1.385983E+02  2.454587E-05 -5.888812E+00  4.327629E-05 -6.625894E+01 
1.454062E-03 -1.382212E+02  9.972832E-01 -1.965973E+01  5.936960E-04 7.342431E+01  3.992143E-04 7.768817E+01 
1.700079E-05 -5.078740E+00  5.789200E-04 7.603899E+01  9.983349E-01 -6.716965E+00  7.590410E-03 8.204050E+01 
2.896799E-05 -8.809837E+01  3.782872E-04 7.860910E+01  7.558997E-03 8.198169E+01  9.976793E-01 -6.500229E+00 
9.462500000E+01  9.970902E-01 -1.691165E+01  1.945556E-03 -1.537575E+02  1.736196E-04 -1.694842E+02  1.662161E-04 1.572368E+02 
1.916734E-03 -1.534870E+02  9.959184E-01 -2.042538E+01  5.502089E-04 1.017526E+02  4.844482E-04 1.229878E+02 
1.518592E-04 -1.632618E+02  5.499398E-04 1.022488E+02  9.974924E-01 -7.008911E+00  7.945445E-03 8.170409E+01 
1.712221E-04 1.570629E+02  4.788280E-04 1.262741E+02  7.939906E-03 8.159786E+01  9.971094E-01 -6.781350E+00 
9.834375000E+01  9.970583E-01 -1.755574E+01  2.121519E-03 -1.317103E+02  2.632181E-05 -1.684993E+02  2.758176E-05 7.005219E+01 
2.089952E-03 -1.316892E+02  9.968598E-01 -2.114185E+01  6.084107E-04 7.469747E+01  4.110569E-04 7.418445E+01 
1.724261E-05 -1.736268E+02  6.230287E-04 7.548558E+01  9.978600E-01 -7.252695E+00  8.167837E-03 8.011865E+01 
3.074291E-05 1.155388E+01  3.922095E-04 7.597331E+01  8.154692E-03 8.024637E+01  9.974821E-01 -6.985219E+00 
1.020625000E+02  9.966676E-01 -1.824450E+01  2.241872E-03 -1.287185E+02  4.603455E-05 -1.765864E+02  8.315122E-05 1.459162E+02 
2.242124E-03 -1.294166E+02  9.964578E-01 -2.200071E+01  6.784228E-04 7.566177E+01  4.237190E-04 6.997100E+01 
7.683906E-05 -1.771847E+02  7.011920E-04 7.531020E+01  9.973984E-01 -7.584590E+00  8.373185E-03 8.130186E+01 
9.395245E-05 1.496491E+02  4.328678E-04 6.968900E+01  8.360002E-03 8.124576E+01  9.973742E-01 -7.330525E+00 
1.057812500E+02  9.960873E-01 -1.893018E+01  2.701313E-03 -1.305454E+02  2.672694E-05 -5.134356E+01  1.944981E-05 -4.841245E+01 
2.685836E-03 -1.309904E+02  9.965465E-01 -2.280790E+01  7.514523E-04 7.762379E+01  4.779332E-04 7.034029E+01 
2.695927E-05 -5.241583E+01  7.791825E-04 7.575676E+01  9.980079E-01 -7.811734E+00  8.685878E-03 8.081098E+01 
8.636804E-06 8.362062E+01  4.867086E-04 6.879497E+01  8.692747E-03 8.088747E+01  9.977643E-01 -7.567404E+00 
1.095000000E+02  9.957573E-01 -1.960416E+01  2.887077E-03 -1.309542E+02  4.190962E-05 1.686376E+02  6.040645E-05 9.744744E+01 
2.909810E-03 -1.311883E+02  9.960720E-01 -2.369154E+01  7.546283E-04 7.837955E+01  5.630418E-04 7.917313E+01 
2.310685E-05 -1.687613E+02  7.636618E-04 7.719143E+01  9.980496E-01 -8.119371E+00  9.003097E-03 8.068793E+01 
3.517853E-05 7.788180E+01  5.400805E-04 7.836266E+01  9.007574E-03 8.100597E+01  9.980425E-01 -7.848807E+00 
1.132187500E+02  9.958782E-01 -2.027869E+01  3.399652E-03 -1.290458E+02  1.857728E-05 -6.461775E+01  2.548627E-05 8.945583E+01 
3.397488E-03 -1.285475E+02  9.950016E-01 -2.442679E+01  7.563555E-04 7.254199E+01  5.173848E-04 7.108863E+01 
2.330148E-05 -1.037724E+02  7.587015E-04 7.142703E+01  9.977939E-01 -8.384448E+00  9.277902E-03 8.070657E+01 
4.327257E-05 2.423499E+01  5.168889E-04 6.845953E+01  9.315969E-03 8.094393E+01  9.979901E-01 -8.120392E+00 
1.169375000E+02  9.955961E-01 -2.088680E+01  4.024608E-03 -1.320340E+02  5.372390E-05 -1.606404E+02  3.086723E-05 1.083779E+02 
4.011053E-03 -1.316588E+02  9.939465E-01 -2.519263E+01  7.859678E-04 7.431817E+01  5.560821E-04 7.353554E+01 
3.973304E-05 -1.395677E+02  7.807583E-04 7.418735E+01  9.982467E-01 -8.651752E+00  9.631691E-03 8.068497E+01 
6.690922E-05 1.073646E+02  5.647531E-04 7.283085E+01  9.640298E-03 8.062813E+01  9.972710E-01 -8.355697E+00 
1.206562500E+02  9.955675E-01 -2.153710E+01  4.246933E-03 -1.320161E+02  3.979924E-05 -1.563894E+02  1.357670E-05 1.212143E+02 
4.207686E-03 -1.318891E+02  9.946778E-01 -2.596223E+01  7.156703E-04 6.684244E+01  4.901248E-04 6.469037E+01 
3.665974E-05 -1.586232E+02  7.548213E-04 6.936302E+01  9.975152E-01 -8.889247E+00  9.898867E-03 8.039276E+01 
2.303438E-05 -1.723829E+01  5.000672E-04 6.640974E+01  9.909441E-03 8.049545E+01  9.971519E-01 -8.635135E+00 
1.243750000E+02  9.965062E-01 -2.222384E+01  4.582082E-03 -1.317020E+02  2.130910E-05 1.557683E+02  5.400999E-05 4.460326E+01 
4.569837E-03 -1.314807E+02  9.952097E-01 -2.671385E+01  7.860420E-04 7.437346E+01  5.591155E-04 6.693255E+01 
2.350636E-05 -1.268297E+02  8.230545E-04 7.338780E+01  9.985879E-01 -9.162671E+00  1.022252E-02 7.994847E+01 
3.784931E-05 7.260464E+01  5.621062E-04 6.814602E+01  1.024482E-02 8.019868E+01  9.971929E-01 -8.901423E+00 
1.280937500E+02  9.953312E-01 -2.292632E+01  5.364662E-03 -1.321477E+02  7.864596E-05 -1.175518E+02  7.155271E-06 -8.693586E+01 
5.316576E-03 -1.321936E+02  9.945847E-01 -2.756091E+01  7.475267E-04 7.152156E+01  4.920507E-04 7.500854E+01 
3.115207E-05 -1.256778E+02  7.812125E-04 7.148926E+01  9.981721E-01 -9.461443E+00  1.051560E-02 7.968784E+01 
2.796066E-05 -7.580173E+01  5.277401E-04 7.540576E+01  1.053437E-02 7.975226E+01  9.962966E-01 -9.137970E+00 
1.318125000E+02  9.960717E-01 -2.365242E+01  5.728054E-03 -1.341122E+02  1.889892E-05 -1.171293E+02  9.730136E-06 6.058157E+01 
5.736520E-03 -1.342561E+02  9.953022E-01 -2.832809E+01  8.515188E-04 7.085372E+01  5.458127E-04 7.019212E+01 
2.591134E-05 -1.189721E+02  8.774505E-04 7.084154E+01  9.977899E-01 -9.707093E+00  1.079666E-02 7.963473E+01 
9.587928E-06 -6.563903E+01  5.472706E-04 6.904482E+01  1.081457E-02 7.950799E+01  9.975813E-01 -9.408896E+00 
1.355312500E+02  9.951365E-01 -2.429923E+01  6.291176E-03 -1.329110E+02  5.394586E-05 -8.089559E+01  1.860485E-05 6.451192E+00 
6.266248E-03 -1.328358E+02  9.947340E-01 -2.914860E+01  8.456755E-04 6.992833E+01  5.187264E-04 6.802308E+01 
4.789665E-05 -1.071121E+02  8.303105E-04 6.786472E+01  9.976937E-01 -1.002027E+01  1.108663E-02 7.913288E+01 
9.754963E-06 9.071835E+01  5.077728E-04 7.042457E+01  1.110596E-02 7.936289E+01  9.978063E-01 -9.679162E+00 
1.392500000E+02  9.935921E-01 -2.485399E+01  7.863625E-03 -1.394512E+02  8.095676E-05 -1.405246E+02  2.184877E-05 1.635097E+02 
7.857574E-03 -1.392630E+02  9.913922E-01 -2.991293E+01  7.916920E-04 7.364759E+01  5.917846E-04 7.650523E+01 
4.877446E-05 -1.593715E+02  8.082812E-04 7.352678E+01  9.976122E-01 -1.025647E+01  1.136140E-02 7.905263E+01 
6.565185E-05 1.435425E+02  5.712617E-04 7.948083E+01  1.137690E-02 7.909639E+01  9.971526E-01 -9.961705E+00 
1.429687500E+02  9.947909E-01 -2.558795E+01  7.572916E-03 -1.350581E+02  1.375237E-05 1.620903E+02  7.603179E-06 -9.927493E+01 
7.555566E-03 -1.348803E+02  9.938562E-01 -3.067249E+01  9.908528E-04 6.227904E+01  6.386282E-04 5.826714E+01 
3.016269E-05 -8.793531E+01  9.961007E-04 6.262067E+01  9.970567E-01 -1.053614E+01  1.164907E-02 7.934327E+01 
1.328375E-05 -1.791241E+02  6.399112E-04 6.005123E+01  1.163434E-02 7.921663E+01  9.968783E-01 -1.019208E+01 
1.466875000E+02  9.942893E-01 -2.623357E+01  8.108058E-03 -1.350130E+02  3.702370E-05 -1.370730E+02  6.970582E-05 1.247930E+02 
8.053323E-03 -1.348834E+02  9.938363E-01 -3.144755E+01  8.372731E-04 7.083969E+01  5.760695E-04 7.553784E+01 
6.698202E-05 -1.490187E+02  8.818902E-04 7.077927E+01  9.974658E-01 -1.077880E+01  1.202568E-02 7.897773E+01 
5.545146E-05 1.163278E+02  5.506530E-04 7.536420E+01  1.203481E-02 7.902832E+01  9.976816E-01 -1.043379E+01 
1.504062500E+02  9.944306E-01 -2.694474E+01  8.693783E-03 -1.340943E+02  5.213255E-05 -1.274773E+02  5.423568E-05 6.477635E+00 
8.625938E-03 -1.340963E+02  9.935829E-01 -3.226792E+01  9.072423E-04 6.625620E+01  6.402570E-04 6.639552E+01 
2.461136E-05 -1.114980E+02  9.262624E-04 6.805661E+01  9.977811E-01 -1.104299E+01  1.233336E-02 7.806856E+01 
3.887748E-05 1.680571E+00  6.098509E-04 6.731124E+01  1.232805E-02 7.811679E+01  9.967886E-01 -1.069664E+01 
1.541250000E+02  9.941659E-01 -2.761501E+01  9.593612E-03 -1.340971E+02  3.980064E-05 -1.334919E+02  3.032623E-05 6.279971E+01 
9.560754E-03 -1.342212E+02  9.937704E-01 -3.306440E+01  9.397733E-04 6.879748E+01  6.231403E-04 6.627801E+01 
3.682239E-05 -4.494396E+01  8.980986E-04 7.026418E+01  9.972810E-01 -1.134320E+01  1.253363E-02 7.758049E+01 
4.083523E-05 8.228722E+01  6.449402E-04 6.985760E+01  1.249734E-02 7.773068E+01  9.971273E-01 -1.098479E+01 
1.578437500E+02  9.937324E-01 -2.832372E+01  1.048668E-02 -1.353593E+02  5.895608E-05 -1.513916E+02  4.751345E-05 6.058869E+01 
1.046927E-02 -1.353815E+02  9.926589E-01 -3.387652E+01  9.719694E-04 7.168041E+01  6.778247E-04 6.459946E+01 
1.121130E-04 -1.482065E+02  9.964887E-04 7.050104E+01  9.970840E-01 -1.162629E+01  1.276932E-02 7.796605E+01 
5.385755E-05 6.539899E+01  6.654847E-04 6.438872E+01  1.274233E-02 7.799199E+01  9.970595E-01 -1.123194E+01 
1.615625000E+02  9.906113E-01 -2.891514E+01  1.136967E-02 -1.308413E+02  7.684288E-05 -9.635866E+01  4.850916E-06 8.764150E+01 
1.132630E-02 -1.308347E+02  9.887151E-01 -3.487010E+01  9.781859E-04 6.753295E+01  6.396438E-04 6.521942E+01 
8.927317E-05 -1.192657E+02  9.715982E-04 6.697340E+01  9.971853E-01 -1.194359E+01  1.312348E-02 7.755174E+01 
2.878722E-05 1.060871E+01  6.507885E-04 6.563933E+01  1.307646E-02 7.762897E+01  9.975793E-01 -1.154341E+01 
1.652812500E+02  9.930651E-01 -2.959077E+01  1.182836E-02 -1.357695E+02  6.242158E-05 -9.495859E+01  3.498099E-05 1.452576E+01 
1.177692E-02 -1.358098E+02  9.932875E-01 -3.536626E+01  9.978080E-04 6.299762E+01  6.223396E-04 6.467133E+01 
6.014293E-05 -1.644850E+02  9.699774E-04 6.277439E+01  9.965602E-01 -1.211300E+01  1.341030E-02 7.752839E+01 
1.861537E-05 6.591543E+01  6.308625E-04 6.415971E+01  1.338281E-02 7.765565E+01  9.972580E-01 -1.176908E+01 
1.690000000E+02  9.930995E-01 -3.028667E+01  1.284038E-02 -1.362973E+02  6.809928E-05 -1.485563E+02  1.263159E-06 5.588240E+01 
1.280116E-02 -1.362150E+02  9.923981E-01 -3.617896E+01  9.917377E-04 6.498204E+01  6.407183E-04 6.609690E+01 
7.468092E-05 -1.395559E+02  1.018165E-03 6.648572E+01  9.974372E-01 -1.237239E+01  1.380009E-02 7.743339E+01 
2.409877E-05 -5.925167E+01  6.573971E-04 6.288861E+01  1.380739E-02 7.742995E+01  9.973533E-01 -1.206638E+01 
1.727187500E+02  9.923471E-01 -3.094734E+01  1.366086E-02 -1.374728E+02  9.424197E-05 -1.314797E+02  4.685907E-05 1.478888E+02 
1.364021E-02 -1.375409E+02  9.919156E-01 -3.691089E+01  1.021645E-03 6.710714E+01  6.646583E-04 6.486047E+01 
1.044910E-04 -1.360559E+02  1.018554E-03 6.653184E+01  9.964166E-01 -1.267441E+01  1.416641E-02 7.671551E+01 
2.424480E-05 2.314873E+01  7.161925E-04 6.467951E+01  1.409992E-02 7.670186E+01  9.958764E-01 -1.225778E+01 
1.764375000E+02  9.927437E-01 -3.163228E+01  1.466810E-02 -1.378112E+02  9.684931E-05 -1.124350E+02  2.236039E-05 1.023999E+01 
1.463554E-02 -1.378952E+02  9.918893E-01 -3.770878E+01  1.026903E-03 6.701280E+01  7.258230E-04 6.622875E+01 
5.915169E-05 -1.024270E+02  1.004333E-03 6.791311E+01  9.964905E-01 -1.291519E+01  1.431451E-02 7.602343E+01 
5.373982E-05 -3.223751E+01  7.727177E-04 6.573485E+01  1.434063E-02 7.620943E+01  9.969827E-01 -1.249283E+01 
1.801562500E+02  9.929606E-01 -3.229737E+01  1.559025E-02 -1.380538E+02  8.834240E-05 -1.071818E+02  1.634479E-06 -1.015620E+02 
1.555384E-02 -1.379464E+02  9.915985E-01 -3.849526E+01  1.058355E-03 6.337153E+01  7.475888E-04 6.269078E+01 
8.823091E-05 -1.004280E+02  1.068368E-03 6.451334E+01  9.967918E-01 -1.318538E+01  1.455312E-02 7.620052E+01 
2.573529E-05 -1.734153E+02  7.293663E-04 6.496724E+01  1.457169E-02 7.604466E+01  9.974190E-01 -1.278672E+01 
1.838750000E+02  9.913804E-01 -3.307994E+01  1.685707E-02 -1.391079E+02  1.152417E-04 -1.212223E+02  2.372215E-05 5.525523E+01 
1.681154E-02 -1.390745E+02  9.918375E-01 -3.930654E+01  1.066477E-03 6.493790E+01  7.729455E-04 6.375889E+01 
9.692410E-05 -1.282717E+02  1.085447E-03 6.684327E+01  9.963451E-01 -1.347134E+01  1.485055E-02 7.583501E+01 
1.987124E-05 1.445471E+01  7.849293E-04 6.641892E+01  1.486724E-02 7.575503E+01  9.964076E-01 -1.301793E+01 
1.875937500E+02  9.921471E-01 -3.364127E+01  1.760481E-02 -1.396339E+02  9.950288E-05 -1.274834E+02  1.869576E-05 1.108023E+02 
1.758135E-02 -1.393250E+02  9.906578E-01 -4.001765E+01  1.134944E-03 6.219299E+01  8.199566E-04 5.976323E+01 
9.179442E-05 -1.274359E+02  1.093632E-03 6.292196E+01  9.967415E-01 -1.373433E+01  1.506348E-02 7.551976E+01 
2.232171E-05 6.193499E+01  7.757431E-04 5.996397E+01  1.506079E-02 7.543443E+01  9.956394E-01 -1.331721E+01 
1.913125000E+02  9.929706E-01 -3.435397E+01  1.881808E-02 -1.400377E+02  7.313993E-05 -1.390201E+02  9.578266E-06 1.442652E+01 
1.879040E-02 -1.400102E+02  9.910828E-01 -4.083756E+01  1.120797E-03 6.398681E+01  7.369311E-04 6.296415E+01 
7.086928E-05 -1.274261E+02  1.139627E-03 6.508113E+01  9.967463E-01 -1.406917E+01  1.534925E-02 7.557720E+01 
2.500936E-05 6.609214E+01  7.356332E-04 6.050879E+01  1.530093E-02 7.576912E+01  9.958456E-01 -1.353473E+01 
1.950312500E+02  9.914786E-01 -3.504539E+01  1.999199E-02 -1.407114E+02  9.888229E-05 -1.295974E+02  8.008409E-05 7.033331E+01 
1.993290E-02 -1.407218E+02  9.910242E-01 -4.156790E+01  1.099402E-03 6.098871E+01  7.605767E-04 5.854942E+01 
1.100004E-04 -1.229307E+02  1.094483E-03 6.134713E+01  9.962566E-01 -1.430501E+01  1.577056E-02 7.531689E+01 
5.817467E-05 9.684235E+01  7.628419E-04 5.877301E+01  1.574733E-02 7.507475E+01  9.960199E-01 -1.377957E+01 
1.987500000E+02  9.912896E-01 -3.572844E+01  2.111520E-02 -1.413852E+02  1.517664E-04 -1.322861E+02  1.552727E-05 -1.400333E+02 
2.109972E-02 -1.413089E+02  9.903325E-01 -4.234575E+01  1.202128E-03 6.142023E+01  8.100259E-04 6.328008E+01 
1.849993E-04 -1.254550E+02  1.173397E-03 6.226741E+01  9.957254E-01 -1.456119E+01  1.598052E-02 7.462826E+01 
1.476330E-05 -1.430939E+02  7.953971E-04 6.227810E+01  1.599657E-02 7.467396E+01  9.956812E-01 -1.402195E+01 
2.024687500E+02  9.904158E-01 -3.646515E+01  2.224207E-02 -1.424710E+02  1.309403E-04 -1.323467E+02  5.823150E-05 6.725894E+01 
2.219136E-02 -1.424348E+02  9.888703E-01 -4.315513E+01  1.114857E-03 6.362902E+01  8.848600E-04 6.558436E+01 
1.171153E-04 -1.224830E+02  1.089521E-03 6.273541E+01  9.958710E-01 -1.481853E+01  1.622287E-02 7.458598E+01 
3.501456E-05 2.485231E+01  8.302046E-04 6.572411E+01  1.620852E-02 7.453702E+01  9.959331E-01 -1.427436E+01 
2.061875000E+02  9.887206E-01 -3.720218E+01  2.328181E-02 -1.424163E+02  1.798624E-04 -1.345917E+02  7.446866E-05 4.182941E+01 
2.322025E-02 -1.423458E+02  9.888903E-01 -4.395290E+01  1.130395E-03 5.998176E+01  8.428075E-04 6.056631E+01 
1.080108E-04 -1.345935E+02  1.127074E-03 5.991285E+01  9.961508E-01 -1.513369E+01  1.657640E-02 7.422958E+01 
5.712085E-05 4.995616E+01  8.727559E-04 6.079815E+01  1.652514E-02 7.420781E+01  9.956199E-01 -1.458173E+01 
2.099062500E+02  9.907864E-01 -3.764984E+01  2.491826E-02 -1.423234E+02  1.296252E-04 -1.265385E+02  5.038575E-05 5.893257E+01 
2.483934E-02 -1.423265E+02  9.884792E-01 -4.444788E+01  1.179501E-03 5.855396E+01  9.250948E-04 6.001627E+01 
1.182464E-04 -1.205150E+02  1.164014E-03 5.892337E+01  9.956763E-01 -1.544194E+01  1.677148E-02 7.374401E+01 
4.412495E-05 5.760401E+01  9.903188E-04 5.911180E+01  1.678729E-02 7.374077E+01  9.949610E-01 -1.478104E+01 
2.136250000E+02  9.900546E-01 -3.844081E+01  2.637583E-02 -1.435955E+02  1.491718E-04 -1.266940E+02  1.340880E-05 -6.650111E+01 
2.625109E-02 -1.435443E+02  9.886238E-01 -4.535333E+01  1.158146E-03 6.182124E+01  8.645794E-04 6.525576E+01 
1.498902E-04 -1.257937E+02  1.165659E-03 6.154460E+01  9.957858E-01 -1.560891E+01  1.713721E-02 7.378486E+01 
2.097266E-05 5.622067E+01  8.537071E-04 6.623703E+01  1.708584E-02 7.383656E+01  9.947653E-01 -1.501453E+01 
2.173437500E+02  9.889135E-01 -3.913431E+01  2.782545E-02 -1.443798E+02  1.541455E-04 -1.215868E+02  1.666157E-05 -4.526131E+01 
2.772630E-02 -1.443164E+02  9.878276E-01 -4.613025E+01  1.110206E-03 5.895565E+01  8.706032E-04 5.760651E+01 
1.545469E-04 -1.199543E+02  1.130184E-03 5.744507E+01  9.956816E-01 -1.584147E+01  1.730695E-02 7.292732E+01 
4.257112E-06 -1.590029E+02  8.725203E-04 5.870655E+01  1.726190E-02 7.300115E+01  9.949937E-01 -1.527006E+01 
2.210625000E+02  9.892594E-01 -3.980416E+01  2.930216E-02 -1.450831E+02  1.800883E-04 -1.158340E+02  2.016593E-05 1.279527E+01 
2.920883E-02 -1.451213E+02  9.877787E-01 -4.692865E+01  1.155064E-03 6.070436E+01  9.306680E-04 5.975614E+01 
1.662474E-04 -1.137257E+02  1.164711E-03 6.107994E+01  9.956562E-01 -1.618129E+01  1.749328E-02 7.277514E+01 
3.502842E-05 1.040938E+01  9.265394E-04 5.932390E+01  1.750126E-02 7.294127E+01  9.955083E-01 -1.552604E+01 
2.247812500E+02  9.892491E-01 -4.048437E+01  3.055989E-02 -1.454443E+02  1.142820E-04 -1.102457E+02  8.498516E-05 1.134240E+01 
3.052067E-02 -1.453263E+02  9.879048E-01 -4.765923E+01  1.198843E-03 6.203711E+01  8.418842E-04 5.441781E+01 
1.224014E-04 -1.251103E+02  1.191875E-03 6.241761E+01  9.950978E-01 -1.638563E+01  1.758539E-02 7.260490E+01 
7.195679E-05 6.573956E+00  8.698601E-04 5.601790E+01  1.760017E-02 7.253169E+01  9.948542E-01 -1.573511E+01 
2.285000000E+02  9.880255E-01 -4.122487E+01  3.251289E-02 -1.462115E+02  1.592609E-04 -1.272968E+02  2.933411E-05 -1.560203E+01 
3.236429E-02 -1.462029E+02  9.870865E-01 -4.845608E+01  1.242810E-03 5.973812E+01  8.667790E-04 5.493650E+01 
1.783119E-04 -1.361035E+02  1.266445E-03 5.989337E+01  9.951520E-01 -1.664375E+01  1.786909E-02 7.266919E+01 
2.304787E-05 5.239696E+01  8.623911E-04 5.653451E+01  1.786218E-02 7.282529E+01  9.956243E-01 -1.603971E+01 
2.322187500E+02  9.870180E-01 -4.196924E+01  3.395311E-02 -1.470307E+02  1.306976E-04 -1.378418E+02  6.131247E-05 -6.540593E+00 
3.385302E-02 -1.470042E+02  9.846585E-01 -4.936825E+01  1.278334E-03 5.870085E+01  9.094208E-04 5.662720E+01 
1.516191E-04 -1.319761E+02  1.274651E-03 5.918346E+01  9.951184E-01 -1.710564E+01  1.815812E-02 7.246231E+01 
5.319854E-05 2.824743E+01  9.174708E-04 5.571473E+01  1.812880E-02 7.232537E+01  9.948999E-01 -1.642811E+01 
2.359375000E+02  9.876851E-01 -4.257834E+01  3.554474E-02 -1.470880E+02  1.473145E-04 -1.216146E+02  4.630262E-05 7.388850E+01 
3.544161E-02 -1.472240E+02  9.863824E-01 -4.998349E+01  1.244768E-03 5.540532E+01  9.286184E-04 5.703417E+01 
1.514302E-04 -1.303360E+02  1.220466E-03 5.573080E+01  9.950033E-01 -1.718435E+01  1.851020E-02 7.285587E+01 
7.083843E-05 6.532803E+01  9.202135E-04 5.636950E+01  1.853408E-02 7.276203E+01  9.947235E-01 -1.649381E+01 
2.396562500E+02  9.889344E-01 -4.324605E+01  3.735491E-02 -1.480217E+02  1.723616E-04 -1.261520E+02  4.076229E-05 3.979035E+01 
3.719908E-02 -1.479722E+02  9.867126E-01 -5.074770E+01  1.234526E-03 5.657013E+01  9.259869E-04 5.733760E+01 
1.747391E-04 -1.279493E+02  1.262619E-03 5.644721E+01  9.951412E-01 -1.741645E+01  1.883240E-02 7.226555E+01 
4.789799E-05 1.024902E+01  8.998420E-04 5.704327E+01  1.887349E-02 7.233995E+01  9.945257E-01 -1.673917E+01 
2.433750000E+02  9.872333E-01 -4.398016E+01  3.926615E-02 -1.487589E+02  1.896915E-04 -1.404101E+02  8.726198E-05 6.819435E+01 
3.922058E-02 -1.488103E+02  9.859114E-01 -5.151719E+01  1.289725E-03 6.232613E+01  1.022575E-03 5.815093E+01 
1.743717E-04 -1.422269E+02  1.273735E-03 6.054465E+01  9.954087E-01 -1.770221E+01  1.903087E-02 7.190226E+01 
7.687421E-05 8.553228E+01  9.975758E-04 5.920629E+01  1.905949E-02 7.185196E+01  9.954991E-01 -1.700950E+01 
2.470937500E+02  9.871734E-01 -4.466176E+01  4.047521E-02 -1.494314E+02  2.224822E-04 -1.239712E+02  3.795750E-06 2.716792E+01 
4.042714E-02 -1.495042E+02  9.854235E-01 -5.228279E+01  1.274797E-03 5.764337E+01  9.456309E-04 5.670530E+01 
1.933075E-04 -1.212153E+02  1.290273E-03 5.818376E+01  9.958723E-01 -1.796658E+01  1.928482E-02 7.175214E+01 
8.498107E-06 4.390369E+01  9.611601E-04 5.525401E+01  1.928497E-02 7.177152E+01  9.950759E-01 -1.728174E+01 
2.508125000E+02  9.866470E-01 -4.536338E+01  4.274049E-02 -1.498762E+02  2.043749E-04 -1.235251E+02  6.614785E-05 2.382927E+01 
4.257867E-02 -1.499563E+02  9.847775E-01 -5.311245E+01  1.291251E-03 5.717077E+01  9.714172E-04 5.704750E+01 
2.092544E-04 -1.241333E+02  1.287158E-03 5.830132E+01  9.958438E-01 -1.825111E+01  1.963639E-02 7.148984E+01 
5.296851E-05 5.449333E+00  9.911678E-04 5.727911E+01  1.961387E-02 7.150507E+01  9.952303E-01 -1.753540E+01 
2.545312500E+02  9.852266E-01 -4.597829E+01  4.467521E-02 -1.511992E+02  2.076390E-04 -1.211389E+02  6.766750E-05 3.008472E+01 
4.452305E-02 -1.512253E+02  9.792779E-01 -5.395644E+01  1.272735E-03 5.778205E+01  9.764969E-04 5.645118E+01 
1.940438E-04 -1.238804E+02  1.263884E-03 5.825085E+01  9.958463E-01 -1.853509E+01  1.989092E-02 7.094868E+01 
4.081949E-05 7.567535E+00  9.927092E-04 5.816057E+01  1.987820E-02 7.098055E+01  9.950124E-01 -1.782784E+01 
2.582500000E+02  9.861499E-01 -4.670153E+01  4.668218E-02 -1.512466E+02  1.855469E-04 -1.252511E+02  7.303116E-05 3.405874E+01 
4.652357E-02 -1.512526E+02  9.840323E-01 -5.451466E+01  1.324248E-03 5.665903E+01  9.944620E-04 5.137372E+01 
2.004661E-04 -1.271093E+02  1.326096E-03 5.609156E+01  9.956169E-01 -1.876806E+01  1.999575E-02 7.077439E+01 
8.084287E-05 2.983680E+01  9.969782E-04 5.219125E+01  1.997257E-02 7.076809E+01  9.944977E-01 -1.799361E+01 
2.619687500E+02  9.855513E-01 -4.744807E+01  4.867148E-02 -1.519815E+02  2.491572E-04 -1.298677E+02  2.479336E-05 3.552206E+01 
4.847718E-02 -1.519179E+02  9.836312E-01 -5.533033E+01  1.311780E-03 5.418876E+01  1.001927E-03 5.312014E+01 
2.724618E-04 -1.311042E+02  1.326821E-03 5.284081E+01  9.955423E-01 -1.897634E+01  2.021859E-02 7.057611E+01 
4.428070E-05 4.152611E+01  9.933040E-04 5.297884E+01  2.017328E-02 7.071176E+01  9.948993E-01 -1.828618E+01 
2.656875000E+02  9.845121E-01 -4.816368E+01  5.092159E-02 -1.528931E+02  1.744189E-04 -1.284140E+02  1.114305E-04 -1.821613E+01 
5.077965E-02 -1.529857E+02  9.825495E-01 -5.608864E+01  1.336083E-03 5.166225E+01  1.052777E-03 4.820240E+01 
2.124622E-04 -1.270548E+02  1.313253E-03 5.127763E+01  9.959636E-01 -1.923605E+01  2.051531E-02 7.076213E+01 
1.041652E-04 -1.361739E+01  1.050562E-03 4.731219E+01  2.054658E-02 7.055040E+01  9.947681E-01 -1.853219E+01 
2.694062500E+02  9.840185E-01 -4.882009E+01  5.256500E-02 -1.532604E+02  2.302530E-04 -1.381078E+02  8.330144E-05 2.721897E+01 
5.236421E-02 -1.532826E+02  9.823725E-01 -5.683754E+01  1.295607E-03 5.229598E+01  1.079251E-03 4.974940E+01 
1.955057E-04 -1.320305E+02  1.298266E-03 5.291338E+01  9.958790E-01 -1.953979E+01  2.079195E-02 7.041720E+01 
6.730355E-05 2.061185E+01  1.046244E-03 4.899117E+01  2.081141E-02 7.052773E+01  9.948926E-01 -1.877565E+01 
2.731250000E+02  9.835154E-01 -4.953136E+01  5.506226E-02 -1.539627E+02  2.794578E-04 -1.284963E+02  4.785187E-05 3.224524E+01 
5.493177E-02 -1.540383E+02  9.819566E-01 -5.765795E+01  1.229380E-03 5.240785E+01  1.000816E-03 5.077728E+01 
2.810377E-04 -1.249378E+02  1.248689E-03 5.301965E+01  9.958857E-01 -1.981811E+01  2.116460E-02 7.003385E+01 
2.666425E-05 4.739261E+01  9.907219E-04 5.102854E+01  2.110731E-02 7.004802E+01  9.950866E-01 -1.905749E+01 
2.768437500E+02  9.820263E-01 -5.019856E+01  5.693348E-02 -1.552745E+02  2.907570E-04 -1.344500E+02  3.942795E-05 -2.647260E+01 
5.686256E-02 -1.552282E+02  9.806321E-01 -5.847301E+01  1.281720E-03 5.570841E+01  1.011322E-03 5.057776E+01 
2.820582E-04 -1.326669E+02  1.303068E-03 5.640741E+01  9.959938E-01 -2.006180E+01  2.134636E-02 6.958503E+01 
5.535946E-05 -1.444998E+01  1.025737E-03 4.978986E+01  2.137442E-02 6.969963E+01  9.947971E-01 -1.931142E+01 
2.805625000E+02  9.811501E-01 -5.088900E+01  5.968317E-02 -1.553655E+02  2.367060E-04 -1.279732E+02  3.736212E-05 2.078977E+01 
5.939216E-02 -1.552947E+02  9.798957E-01 -5.912593E+01  1.275717E-03 5.474781E+01  1.047297E-03 5.061356E+01 
2.600040E-04 -1.354122E+02  1.272260E-03 5.409972E+01  9.945194E-01 -2.033395E+01  2.152571E-02 6.949050E+01 
4.432746E-05 2.342336E+01  1.035953E-03 4.923070E+01  2.151832E-02 6.951378E+01  9.951125E-01 -1.956123E+01 
2.842812500E+02  9.815783E-01 -5.165357E+01  6.193561E-02 -1.561651E+02  3.054603E-04 -1.259298E+02  9.100317E-05 9.045239E+00 
6.183666E-02 -1.562301E+02  9.794757E-01 -5.993065E+01  1.241723E-03 5.795236E+01  1.006814E-03 5.153948E+01 
3.153267E-04 -1.261182E+02  1.229260E-03 5.800856E+01  9.948631E-01 -2.061698E+01  2.178550E-02 6.914137E+01 
4.800275E-05 9.528074E+00  9.954234E-04 5.156593E+01  2.177620E-02 6.920201E+01  9.944800E-01 -1.979746E+01 
2.880000000E+02  9.803782E-01 -5.235837E+01  6.430513E-02 -1.568408E+02  3.055556E-04 -1.299671E+02  1.067495E-04 -9.750241E-01 