! Matrix data file written by TouchstoneData, EPCOS AG
! FILENAME: "ansys_B4328_03_NB.matched.snp"
! COMMENT: "test0 (B4328_03_NB.matched.snp)"
! INFO: nport=3, nfreq=1601
! DATE: "Mon Jul  8 13:27:51 2013"
! USER: "Daniel Harbusch"
!
! port | pin | signal
! -----|-----|--------
!   1  |  1  |  Input
!   2  |  3  |  Output balanced
!   3  |  4  |  Output balanced
! --------------------
! 
# MHZ S MA R 50
! freq  magS11 angS11  magS12 angS12  magS13 angS13  ...
1.600000000E+03  9.350070E-01 -4.436439E+01  3.291100E-03 -1.366049E+02  1.748644E-03 -1.525452E+02 
 3.291100E-03 -1.366049E+02  4.214313E-01 1.748386E+01  8.528250E-01 -6.788995E+01 
 1.748644E-03 -1.525452E+02  8.528250E-01 -6.788995E+01  4.211963E-01 1.574434E+01 
1.600312500E+03  9.348125E-01 -4.446021E+01  3.258906E-03 -1.393710E+02  1.758725E-03 -1.482594E+02 
 3.258906E-03 -1.393710E+02  4.202384E-01 1.723797E+01  8.514755E-01 -6.780401E+01 
 1.758725E-03 -1.482594E+02  8.514755E-01 -6.780401E+01  4.196081E-01 1.553321E+01 
1.600625000E+03  9.348002E-01 -4.448293E+01  3.143684E-03 -1.399835E+02  1.837617E-03 -1.458435E+02 
 3.143684E-03 -1.399835E+02  4.184237E-01 1.719725E+01  8.517644E-01 -6.769774E+01 
 1.837617E-03 -1.458435E+02  8.517644E-01 -6.769774E+01  4.177378E-01 1.555737E+01 
1.600937500E+03  9.351802E-01 -4.450543E+01  3.130078E-03 -1.402127E+02  1.838904E-03 -1.456398E+02 
 3.130078E-03 -1.402127E+02  4.171009E-01 1.726371E+01  8.524379E-01 -6.764962E+01 
 1.838904E-03 -1.456398E+02  8.524379E-01 -6.764962E+01  4.168487E-01 1.560542E+01 
1.601250000E+03  9.350777E-01 -4.455337E+01  3.138054E-03 -1.412950E+02  1.819425E-03 -1.435357E+02 
 3.138054E-03 -1.412950E+02  4.157849E-01 1.740473E+01  8.533955E-01 -6.759052E+01 
 1.819425E-03 -1.435357E+02  8.533955E-01 -6.759052E+01  4.157656E-01 1.567745E+01 
1.601562500E+03  9.353820E-01 -4.460050E+01  3.040595E-03 -1.424420E+02  1.902021E-03 -1.412262E+02 
 3.040595E-03 -1.424420E+02  4.155020E-01 1.767143E+01  8.554022E-01 -6.760504E+01 
 1.902021E-03 -1.412262E+02  8.554022E-01 -6.760504E+01  4.155206E-01 1.592762E+01 
1.601875000E+03  9.350716E-01 -4.466251E+01  3.004465E-03 -1.423136E+02  1.952005E-03 -1.410300E+02 
 3.004465E-03 -1.423136E+02  4.168600E-01 1.785825E+01  8.567278E-01 -6.771175E+01 
 1.952005E-03 -1.410300E+02  8.567278E-01 -6.771175E+01  4.165261E-01 1.611908E+01 
1.602187500E+03  9.352438E-01 -4.472383E+01  2.967869E-03 -1.434826E+02  2.003658E-03 -1.382722E+02 
 2.967869E-03 -1.434826E+02  4.179921E-01 1.787096E+01  8.568039E-01 -6.779626E+01 
 2.003658E-03 -1.382722E+02  8.568039E-01 -6.779626E+01  4.173513E-01 1.614925E+01 
1.602500000E+03  9.354197E-01 -4.477672E+01  2.868533E-03 -1.447891E+02  2.139402E-03 -1.360529E+02 
 2.868533E-03 -1.447891E+02  4.186149E-01 1.789242E+01  8.568629E-01 -6.785843E+01 
 2.139402E-03 -1.360529E+02  8.568629E-01 -6.785843E+01  4.178277E-01 1.615262E+01 
1.602812500E+03  9.356443E-01 -4.485050E+01  2.761539E-03 -1.446582E+02  2.233601E-03 -1.369780E+02 
 2.761539E-03 -1.446582E+02  4.196294E-01 1.798513E+01  8.574698E-01 -6.795084E+01 
 2.233601E-03 -1.369780E+02  8.574698E-01 -6.795084E+01  4.188664E-01 1.622986E+01 
1.603125000E+03  9.352945E-01 -4.494934E+01  2.725355E-03 -1.433608E+02  2.286295E-03 -1.381104E+02 
 2.725355E-03 -1.433608E+02  4.206349E-01 1.801184E+01  8.576236E-01 -6.804591E+01 
 2.286295E-03 -1.381104E+02  8.576236E-01 -6.804591E+01  4.203184E-01 1.628407E+01 
1.603437500E+03  9.353599E-01 -4.502068E+01  2.755390E-03 -1.428000E+02  2.284742E-03 -1.379106E+02 
 2.755390E-03 -1.428000E+02  4.223115E-01 1.802540E+01  8.577040E-01 -6.815515E+01 
 2.284742E-03 -1.379106E+02  8.577040E-01 -6.815515E+01  4.215855E-01 1.627067E+01 
1.603750000E+03  9.352361E-01 -4.506960E+01  2.757925E-03 -1.441614E+02  2.336217E-03 -1.362278E+02 
 2.757925E-03 -1.441614E+02  4.232353E-01 1.801459E+01  8.573811E-01 -6.822515E+01 
 2.336217E-03 -1.362278E+02  8.573811E-01 -6.822515E+01  4.224689E-01 1.620240E+01 
1.604062500E+03  9.357052E-01 -4.514504E+01  2.674223E-03 -1.463102E+02  2.455159E-03 -1.359518E+02 
 2.674223E-03 -1.463102E+02  4.239717E-01 1.800280E+01  8.572964E-01 -6.828428E+01 
 2.455159E-03 -1.359518E+02  8.572964E-01 -6.828428E+01  4.233750E-01 1.618091E+01 
1.604375000E+03  9.360512E-01 -4.523468E+01  2.517105E-03 -1.473301E+02  2.623898E-03 -1.354518E+02 
 2.517105E-03 -1.473301E+02  4.252563E-01 1.793592E+01  8.568957E-01 -6.838270E+01 
 2.623898E-03 -1.354518E+02  8.568957E-01 -6.838270E+01  4.246201E-01 1.611077E+01 
1.604687500E+03  9.363342E-01 -4.528818E+01  2.387660E-03 -1.446778E+02  2.707025E-03 -1.390080E+02 
 2.387660E-03 -1.446778E+02  4.259961E-01 1.784708E+01  8.565592E-01 -6.843274E+01 
 2.707025E-03 -1.390080E+02  8.565592E-01 -6.843274E+01  4.250952E-01 1.605559E+01 
1.605000000E+03  9.358568E-01 -4.539111E+01  2.397138E-03 -1.397909E+02  2.705207E-03 -1.430221E+02 
 2.397138E-03 -1.397909E+02  4.260646E-01 1.782260E+01  8.563542E-01 -6.847037E+01 
 2.705207E-03 -1.430221E+02  8.563542E-01 -6.847037E+01  4.255248E-01 1.601965E+01 
1.605312500E+03  9.357405E-01 -4.546665E+01  2.487307E-03 -1.382937E+02  2.610463E-03 -1.449312E+02 
 2.487307E-03 -1.382937E+02  4.270220E-01 1.783925E+01  8.563625E-01 -6.855409E+01 
 2.610463E-03 -1.449312E+02  8.563625E-01 -6.855409E+01  4.264547E-01 1.599837E+01 
1.605625000E+03  9.356296E-01 -4.554539E+01  2.554861E-03 -1.386951E+02  2.521596E-03 -1.449176E+02 
 2.554861E-03 -1.386951E+02  4.280375E-01 1.780988E+01  8.560863E-01 -6.862150E+01 
 2.521596E-03 -1.449176E+02  8.560863E-01 -6.862150E+01  4.270999E-01 1.594965E+01 
1.605937500E+03  9.359805E-01 -4.563394E+01  2.604015E-03 -1.397939E+02  2.476649E-03 -1.430647E+02 
 2.604015E-03 -1.397939E+02  4.289252E-01 1.776835E+01  8.559210E-01 -6.869474E+01 
 2.476649E-03 -1.430647E+02  8.559210E-01 -6.869474E+01  4.279308E-01 1.592929E+01 
1.606250000E+03  9.358333E-01 -4.567601E+01  2.630501E-03 -1.410063E+02  2.450363E-03 -1.416897E+02 
 2.630501E-03 -1.410063E+02  4.299156E-01 1.769146E+01  8.552833E-01 -6.878316E+01 
 2.450363E-03 -1.416897E+02  8.552833E-01 -6.878316E+01  4.289534E-01 1.582983E+01 
1.606562500E+03  9.358991E-01 -4.574010E+01  2.612607E-03 -1.438102E+02  2.439146E-03 -1.397219E+02 
 2.612607E-03 -1.438102E+02  4.302446E-01 1.762219E+01  8.548464E-01 -6.883153E+01 
 2.439146E-03 -1.397219E+02  8.548464E-01 -6.883153E+01  4.296766E-01 1.577299E+01 
1.606875000E+03  9.364331E-01 -4.582719E+01  2.576972E-03 -1.443709E+02  2.494634E-03 -1.383782E+02 
 2.576972E-03 -1.443709E+02  4.309998E-01 1.756952E+01  8.545209E-01 -6.889322E+01 
 2.494634E-03 -1.383782E+02  8.545209E-01 -6.889322E+01  4.301027E-01 1.574892E+01 
1.607187500E+03  9.364072E-01 -4.590596E+01  2.557343E-03 -1.447507E+02  2.534157E-03 -1.372118E+02 
 2.557343E-03 -1.447507E+02  4.320907E-01 1.755400E+01  8.543713E-01 -6.898503E+01 
 2.534157E-03 -1.372118E+02  8.543713E-01 -6.898503E+01  4.313314E-01 1.570768E+01 
1.607500000E+03  9.360542E-01 -4.598975E+01  2.512663E-03 -1.467187E+02  2.611641E-03 -1.360732E+02 
 2.512663E-03 -1.467187E+02  4.327215E-01 1.744617E+01  8.535339E-01 -6.905070E+01 
 2.611641E-03 -1.360732E+02  8.535339E-01 -6.905070E+01  4.322806E-01 1.562100E+01 
1.607812500E+03  9.357614E-01 -4.607379E+01  2.428979E-03 -1.469460E+02  2.682100E-03 -1.359571E+02 
 2.428979E-03 -1.469460E+02  4.333207E-01 1.734431E+01  8.526283E-01 -6.909383E+01 
 2.682100E-03 -1.359571E+02  8.526283E-01 -6.909383E+01  4.325375E-01 1.548496E+01 
1.608125000E+03  9.357554E-01 -4.613075E+01  2.416734E-03 -1.471866E+02  2.704516E-03 -1.353310E+02 
 2.416734E-03 -1.471866E+02  4.337781E-01 1.720436E+01  8.517310E-01 -6.914152E+01 
 2.704516E-03 -1.353310E+02  8.517310E-01 -6.914152E+01  4.328921E-01 1.539523E+01 
1.608437500E+03  9.365514E-01 -4.622110E+01  2.322024E-03 -1.503138E+02  2.827140E-03 -1.332549E+02 
 2.322024E-03 -1.503138E+02  4.337642E-01 1.722656E+01  8.516360E-01 -6.915656E+01 
 2.827140E-03 -1.332549E+02  8.516360E-01 -6.915656E+01  4.330992E-01 1.534859E+01 
1.608750000E+03  9.361966E-01 -4.632681E+01  2.219145E-03 -1.503592E+02  2.938233E-03 -1.345190E+02 
 2.219145E-03 -1.503592E+02  4.346330E-01 1.722688E+01  8.515212E-01 -6.921989E+01 
 2.938233E-03 -1.345190E+02  8.515212E-01 -6.921989E+01  4.336584E-01 1.530859E+01 
1.609062500E+03  9.359199E-01 -4.639742E+01  2.098030E-03 -1.492879E+02  3.016021E-03 -1.357333E+02 
 2.098030E-03 -1.492879E+02  4.354538E-01 1.713101E+01  8.509875E-01 -6.927366E+01 
 3.016021E-03 -1.357333E+02  8.509875E-01 -6.927366E+01  4.340295E-01 1.526025E+01 
1.609375000E+03  9.359248E-01 -4.648031E+01  2.037470E-03 -1.484202E+02  3.055395E-03 -1.364502E+02 
 2.037470E-03 -1.484202E+02  4.360857E-01 1.710544E+01  8.507510E-01 -6.932646E+01 
 3.055395E-03 -1.364502E+02  8.507510E-01 -6.932646E+01  4.345165E-01 1.521778E+01 
1.609687500E+03  9.359091E-01 -4.656170E+01  1.945387E-03 -1.481274E+02  3.137130E-03 -1.365348E+02 
 1.945387E-03 -1.481274E+02  4.367677E-01 1.704495E+01  8.504339E-01 -6.939707E+01 
 3.137130E-03 -1.365348E+02  8.504339E-01 -6.939707E+01  4.354619E-01 1.517327E+01 
1.610000000E+03  9.355057E-01 -4.663839E+01  1.905056E-03 -1.461054E+02  3.163450E-03 -1.371089E+02 
 1.905056E-03 -1.461054E+02  4.371765E-01 1.697751E+01  8.499457E-01 -6.944741E+01 
 3.163450E-03 -1.371089E+02  8.499457E-01 -6.944741E+01  4.360816E-01 1.510747E+01 
1.610312500E+03  9.354191E-01 -4.669989E+01  1.849672E-03 -1.449483E+02  3.218528E-03 -1.373823E+02 
 1.849672E-03 -1.449483E+02  4.376160E-01 1.694133E+01  8.494579E-01 -6.949170E+01 
 3.218528E-03 -1.373823E+02  8.494579E-01 -6.949170E+01  4.364170E-01 1.502648E+01 
1.610625000E+03  9.348736E-01 -4.677637E+01  1.832546E-03 -1.445992E+02  3.244014E-03 -1.368989E+02 
 1.832546E-03 -1.445992E+02  4.379030E-01 1.688121E+01  8.489806E-01 -6.953412E+01 
 3.244014E-03 -1.368989E+02  8.489806E-01 -6.953412E+01  4.370440E-01 1.497980E+01 
1.610937500E+03  9.349480E-01 -4.688593E+01  1.733984E-03 -1.464176E+02  3.409329E-03 -1.365081E+02 
 1.733984E-03 -1.464176E+02  4.387498E-01 1.684440E+01  8.487256E-01 -6.960577E+01 
 3.409329E-03 -1.365081E+02  8.487256E-01 -6.960577E+01  4.379033E-01 1.493329E+01 
1.611250000E+03  9.340914E-01 -4.695710E+01  1.599202E-03 -1.434894E+02  3.526068E-03 -1.379023E+02 
 1.599202E-03 -1.434894E+02  4.387133E-01 1.679548E+01  8.481411E-01 -6.962939E+01 
 3.526068E-03 -1.379023E+02  8.481411E-01 -6.962939E+01  4.384640E-01 1.483146E+01 
1.611562500E+03  9.337384E-01 -4.703074E+01  1.547816E-03 -1.378069E+02  3.624432E-03 -1.401061E+02 
 1.547816E-03 -1.378069E+02  4.386508E-01 1.679718E+01  8.479520E-01 -6.961193E+01 
 3.624432E-03 -1.401061E+02  8.479520E-01 -6.961193E+01  4.379193E-01 1.476950E+01 
1.611875000E+03  9.330748E-01 -4.710706E+01  1.539017E-03 -1.335878E+02  3.675650E-03 -1.419927E+02 
 1.539017E-03 -1.335878E+02  4.389373E-01 1.683540E+01  8.483452E-01 -6.965368E+01 
 3.675650E-03 -1.419927E+02  8.483452E-01 -6.965368E+01  4.384254E-01 1.480465E+01 
1.612187500E+03  9.327874E-01 -4.716543E+01  1.556273E-03 -1.312730E+02  3.678566E-03 -1.433820E+02 
 1.556273E-03 -1.312730E+02  4.398090E-01 1.685589E+01  8.483357E-01 -6.971546E+01 
 3.678566E-03 -1.433820E+02  8.483357E-01 -6.971546E+01  4.388857E-01 1.474885E+01 
1.612500000E+03  9.326165E-01 -4.721135E+01  1.605167E-03 -1.280285E+02  3.675009E-03 -1.448855E+02 
 1.605167E-03 -1.280285E+02  4.406667E-01 1.687259E+01  8.484977E-01 -6.976304E+01 
 3.675009E-03 -1.448855E+02  8.484977E-01 -6.976304E+01  4.389923E-01 1.474946E+01 
1.612812500E+03  9.325394E-01 -4.729942E+01  1.628051E-03 -1.290294E+02  3.667774E-03 -1.452088E+02 
 1.628051E-03 -1.290294E+02  4.411499E-01 1.686495E+01  8.484086E-01 -6.981349E+01 
 3.667774E-03 -1.452088E+02  8.484086E-01 -6.981349E+01  4.394408E-01 1.474156E+01 
1.613125000E+03  9.324304E-01 -4.735873E+01  1.533803E-03 -1.280192E+02  3.746121E-03 -1.459710E+02 
 1.533803E-03 -1.280192E+02  4.419103E-01 1.681713E+01  8.482400E-01 -6.988552E+01 
 3.746121E-03 -1.459710E+02  8.482400E-01 -6.988552E+01  4.401859E-01 1.474489E+01 
1.613437500E+03  9.320245E-01 -4.739366E+01  1.500248E-03 -1.227893E+02  3.768270E-03 -1.475703E+02 
 1.500248E-03 -1.227893E+02  4.426301E-01 1.675069E+01  8.479810E-01 -6.995336E+01 
 3.768270E-03 -1.475703E+02  8.479810E-01 -6.995336E+01  4.407349E-01 1.474082E+01 
1.613750000E+03  9.324030E-01 -4.746450E+01  1.580159E-03 -1.190286E+02  3.735490E-03 -1.494686E+02 
 1.580159E-03 -1.190286E+02  4.428841E-01 1.674459E+01  8.478855E-01 -7.000367E+01 
 3.735490E-03 -1.494686E+02  8.478855E-01 -7.000367E+01  4.413671E-01 1.475606E+01 
1.614062500E+03  9.329585E-01 -4.754314E+01  1.621367E-03 -1.185675E+02  3.670697E-03 -1.502792E+02 
 1.621367E-03 -1.185675E+02  4.440646E-01 1.670155E+01  8.477606E-01 -7.007981E+01 
 3.670697E-03 -1.502792E+02  8.477606E-01 -7.007981E+01  4.419631E-01 1.480151E+01 
1.614375000E+03  9.324646E-01 -4.761129E+01  1.584666E-03 -1.168181E+02  3.646531E-03 -1.499814E+02 
 1.584666E-03 -1.168181E+02  4.451496E-01 1.660899E+01  8.474646E-01 -7.016321E+01 
 3.646531E-03 -1.499814E+02  8.474646E-01 -7.016321E+01  4.429682E-01 1.483414E+01 
1.614687500E+03  9.322063E-01 -4.765159E+01  1.557027E-03 -1.132275E+02  3.697511E-03 -1.504202E+02 
 1.557027E-03 -1.132275E+02  4.453186E-01 1.649502E+01  8.466263E-01 -7.021062E+01 
 3.697511E-03 -1.504202E+02  8.466263E-01 -7.021062E+01  4.438780E-01 1.477048E+01 
1.615000000E+03  9.325964E-01 -4.772381E+01  1.596456E-03 -1.083701E+02  3.705712E-03 -1.516330E+02 
 1.596456E-03 -1.083701E+02  4.456033E-01 1.646621E+01  8.464250E-01 -7.025933E+01 
 3.705712E-03 -1.516330E+02  8.464250E-01 -7.025933E+01  4.445979E-01 1.475120E+01 
1.615312500E+03  9.322990E-01 -4.779588E+01  1.682704E-03 -1.043940E+02  3.674762E-03 -1.518295E+02 
 1.682704E-03 -1.043940E+02  4.461256E-01 1.644606E+01  8.464465E-01 -7.034088E+01 
 3.674762E-03 -1.518295E+02  8.464465E-01 -7.034088E+01  4.460721E-01 1.476417E+01 
1.615625000E+03  9.316221E-01 -4.788975E+01  1.818632E-03 -1.027383E+02  3.707445E-03 -1.526154E+02 
 1.818632E-03 -1.027383E+02  4.466510E-01 1.647882E+01  8.463142E-01 -7.038852E+01 
 3.707445E-03 -1.526154E+02  8.463142E-01 -7.038852E+01  4.468610E-01 1.471769E+01 
1.615937500E+03  9.312156E-01 -4.792215E+01  1.898016E-03 -1.030120E+02  3.665103E-03 -1.535875E+02 
 1.898016E-03 -1.030120E+02  4.479457E-01 1.643381E+01  8.460829E-01 -7.047229E+01 
 3.665103E-03 -1.535875E+02  8.460829E-01 -7.047229E+01  4.475704E-01 1.466994E+01 
1.616250000E+03  9.308952E-01 -4.800333E+01  1.946848E-03 -1.002844E+02  3.663410E-03 -1.539441E+02 
 1.946848E-03 -1.002844E+02  4.485610E-01 1.639508E+01  8.460021E-01 -7.055244E+01 
 3.663410E-03 -1.539441E+02  8.460021E-01 -7.055244E+01  4.488717E-01 1.467089E+01 
1.616562500E+03  9.299700E-01 -4.807060E+01  2.062799E-03 -9.610038E+01  3.745820E-03 -1.544883E+02 
 2.062799E-03 -9.610038E+01  4.491845E-01 1.641808E+01  8.458087E-01 -7.060286E+01 
 3.745820E-03 -1.544883E+02  8.458087E-01 -7.060286E+01  4.496196E-01 1.460798E+01 
1.616875000E+03  9.291759E-01 -4.814834E+01  2.341466E-03 -9.559768E+01  3.791846E-03 -1.568861E+02 
 2.341466E-03 -9.559768E+01  4.499328E-01 1.642730E+01  8.458624E-01 -7.067168E+01 
 3.791846E-03 -1.568861E+02  8.458624E-01 -7.067168E+01  4.505737E-01 1.455886E+01 
1.617187500E+03  9.290590E-01 -4.819213E+01  2.494668E-03 -9.854939E+01  3.702037E-03 -1.584911E+02 
 2.494668E-03 -9.854939E+01  4.508697E-01 1.644063E+01  8.456802E-01 -7.073566E+01 
 3.702037E-03 -1.584911E+02  8.456802E-01 -7.073566E+01  4.508869E-01 1.448168E+01 
1.617500000E+03  9.281321E-01 -4.821472E+01  2.629450E-03 -1.001636E+02  3.604435E-03 -1.591814E+02 
 2.629450E-03 -1.001636E+02  4.520405E-01 1.644149E+01  8.455724E-01 -7.082912E+01 
 3.604435E-03 -1.591814E+02  8.455724E-01 -7.082912E+01  4.516673E-01 1.445582E+01 
1.617812500E+03  9.276228E-01 -4.823731E+01  2.747452E-03 -1.016427E+02  3.565737E-03 -1.604038E+02 
 2.747452E-03 -1.016427E+02  4.529308E-01 1.638198E+01  8.450704E-01 -7.090281E+01 
 3.565737E-03 -1.604038E+02  8.450704E-01 -7.090281E+01  4.523744E-01 1.442440E+01 
1.618125000E+03  9.280917E-01 -4.821607E+01  2.814221E-03 -1.028083E+02  3.475162E-03 -1.611458E+02 
 2.814221E-03 -1.028083E+02  4.540084E-01 1.633782E+01  8.446586E-01 -7.098476E+01 
 3.475162E-03 -1.611458E+02  8.446586E-01 -7.098476E+01  4.530520E-01 1.439204E+01 
1.618437500E+03  9.293242E-01 -4.829430E+01  2.863213E-03 -1.049972E+02  3.310822E-03 -1.616561E+02 
 2.863213E-03 -1.049972E+02  4.545999E-01 1.630903E+01  8.441896E-01 -7.103614E+01 
 3.310822E-03 -1.616561E+02  8.441896E-01 -7.103614E+01  4.536037E-01 1.438237E+01 
1.618750000E+03  9.296326E-01 -4.835440E+01  2.885910E-03 -1.061947E+02  3.261088E-03 -1.591709E+02 
 2.885910E-03 -1.061947E+02  4.556133E-01 1.628433E+01  8.437543E-01 -7.111269E+01 
 3.261088E-03 -1.591709E+02  8.437543E-01 -7.111269E+01  4.545190E-01 1.435144E+01 
1.619062500E+03  9.306089E-01 -4.840741E+01  2.931595E-03 -1.061759E+02  3.253609E-03 -1.591423E+02 
 2.931595E-03 -1.061759E+02  4.563781E-01 1.623269E+01  8.430840E-01 -7.117644E+01 
 3.253609E-03 -1.591423E+02  8.430840E-01 -7.117644E+01  4.553523E-01 1.430454E+01 
1.619375000E+03  9.310666E-01 -4.853868E+01  3.035046E-03 -1.070585E+02  3.242320E-03 -1.592263E+02 
 3.035046E-03 -1.070585E+02  4.572260E-01 1.624106E+01  8.427003E-01 -7.124289E+01 
 3.242320E-03 -1.592263E+02  8.427003E-01 -7.124289E+01  4.565152E-01 1.428329E+01 
1.619687500E+03  9.310373E-01 -4.861926E+01  3.053941E-03 -1.078663E+02  3.209082E-03 -1.583577E+02 
 3.053941E-03 -1.078663E+02  4.581287E-01 1.617807E+01  8.421855E-01 -7.128775E+01 
 3.209082E-03 -1.583577E+02  8.421855E-01 -7.128775E+01  4.575114E-01 1.428214E+01 
1.620000000E+03  9.310472E-01 -4.870887E+01  3.093442E-03 -1.097596E+02  3.214536E-03 -1.569265E+02 
 3.093442E-03 -1.097596E+02  4.591685E-01 1.611905E+01  8.414906E-01 -7.134834E+01 
 3.214536E-03 -1.569265E+02  8.414906E-01 -7.134834E+01  4.587529E-01 1.417210E+01 
1.620312500E+03  9.311937E-01 -4.879373E+01  3.082803E-03 -1.103526E+02  3.262715E-03 -1.569431E+02 
 3.082803E-03 -1.103526E+02  4.604593E-01 1.604218E+01  8.412876E-01 -7.140457E+01 
 3.262715E-03 -1.569431E+02  8.412876E-01 -7.140457E+01  4.595050E-01 1.411328E+01 
1.620625000E+03  9.308922E-01 -4.884586E+01  3.120897E-03 -1.099640E+02  3.245903E-03 -1.568240E+02 
 3.120897E-03 -1.099640E+02  4.613770E-01 1.601273E+01  8.412517E-01 -7.145901E+01 
 3.245903E-03 -1.568240E+02  8.412517E-01 -7.145901E+01  4.602993E-01 1.407816E+01 
1.620937500E+03  9.313007E-01 -4.889420E+01  3.182452E-03 -1.098675E+02  3.305775E-03 -1.562802E+02 
 3.182452E-03 -1.098675E+02  4.620467E-01 1.595467E+01  8.409699E-01 -7.151730E+01 
 3.305775E-03 -1.562802E+02  8.409699E-01 -7.151730E+01  4.614361E-01 1.401038E+01 
1.621250000E+03  9.309584E-01 -4.896997E+01  3.293510E-03 -1.109890E+02  3.343755E-03 -1.576060E+02 
 3.293510E-03 -1.109890E+02  4.629743E-01 1.590594E+01  8.407473E-01 -7.157715E+01 
 3.343755E-03 -1.576060E+02  8.407473E-01 -7.157715E+01  4.621584E-01 1.392755E+01 
1.621562500E+03  9.313702E-01 -4.900800E+01  3.352073E-03 -1.129052E+02  3.287604E-03 -1.585830E+02 
 3.352073E-03 -1.129052E+02  4.638752E-01 1.583127E+01  8.403200E-01 -7.165425E+01 
 3.287604E-03 -1.585830E+02  8.403200E-01 -7.165425E+01  4.629297E-01 1.385168E+01 
1.621875000E+03  9.311724E-01 -4.909826E+01  3.342179E-03 -1.129116E+02  3.268961E-03 -1.589467E+02 
 3.342179E-03 -1.129116E+02  4.648761E-01 1.578785E+01  8.401497E-01 -7.172664E+01 
 3.268961E-03 -1.589467E+02  8.401497E-01 -7.172664E+01  4.638700E-01 1.380224E+01 
1.622187500E+03  9.310041E-01 -4.914000E+01  3.358336E-03 -1.129201E+02  3.258701E-03 -1.589534E+02 
 3.358336E-03 -1.129201E+02  4.658667E-01 1.570859E+01  8.396381E-01 -7.180082E+01 
 3.258701E-03 -1.589534E+02  8.396381E-01 -7.180082E+01  4.646726E-01 1.370744E+01 
1.622500000E+03  9.307669E-01 -4.919443E+01  3.508777E-03 -1.126718E+02  3.275476E-03 -1.590719E+02 
 3.508777E-03 -1.126718E+02  4.662091E-01 1.563601E+01  8.391272E-01 -7.185050E+01 
 3.275476E-03 -1.590719E+02  8.391272E-01 -7.185050E+01  4.654151E-01 1.362191E+01 
1.622812500E+03  9.311661E-01 -4.924708E+01  3.623570E-03 -1.140670E+02  3.289770E-03 -1.602456E+02 
 3.623570E-03 -1.140670E+02  4.670970E-01 1.558366E+01  8.387773E-01 -7.192113E+01 
 3.289770E-03 -1.602456E+02  8.387773E-01 -7.192113E+01  4.660077E-01 1.354451E+01 
1.623125000E+03  9.315429E-01 -4.928615E+01  3.660922E-03 -1.157411E+02  3.278579E-03 -1.606617E+02 
 3.660922E-03 -1.157411E+02  4.676202E-01 1.551693E+01  8.381529E-01 -7.197157E+01 
 3.278579E-03 -1.606617E+02  8.381529E-01 -7.197157E+01  4.664853E-01 1.347704E+01 
1.623437500E+03  9.325402E-01 -4.934061E+01  3.752213E-03 -1.175554E+02  3.230979E-03 -1.626826E+02 
 3.752213E-03 -1.175554E+02  4.684431E-01 1.541432E+01  8.376320E-01 -7.203937E+01 
 3.230979E-03 -1.626826E+02  8.376320E-01 -7.203937E+01  4.671322E-01 1.342903E+01 
1.623750000E+03  9.333662E-01 -4.941278E+01  3.781348E-03 -1.193175E+02  3.122928E-03 -1.645006E+02 
 3.781348E-03 -1.193175E+02  4.693179E-01 1.536000E+01  8.373329E-01 -7.212342E+01 
 3.122928E-03 -1.645006E+02  8.373329E-01 -7.212342E+01  4.680798E-01 1.339441E+01 
1.624062500E+03  9.336306E-01 -4.950133E+01  3.695368E-03 -1.211911E+02  2.979123E-03 -1.639458E+02 
 3.695368E-03 -1.211911E+02  4.700536E-01 1.531839E+01  8.366778E-01 -7.218230E+01 
 2.979123E-03 -1.639458E+02  8.366778E-01 -7.218230E+01  4.688721E-01 1.331006E+01 
1.624375000E+03  9.343041E-01 -4.960645E+01  3.650401E-03 -1.216394E+02  2.926629E-03 -1.616323E+02 
 3.650401E-03 -1.216394E+02  4.706744E-01 1.523116E+01  8.361266E-01 -7.223856E+01 
 2.926629E-03 -1.616323E+02  8.361266E-01 -7.223856E+01  4.698166E-01 1.325937E+01 
1.624687500E+03  9.346119E-01 -4.967457E+01  3.718338E-03 -1.216433E+02  2.906403E-03 -1.614204E+02 
 3.718338E-03 -1.216433E+02  4.714113E-01 1.516012E+01  8.356371E-01 -7.229760E+01 
 2.906403E-03 -1.614204E+02  8.356371E-01 -7.229760E+01  4.704456E-01 1.317578E+01 
1.625000000E+03  9.350825E-01 -4.977379E+01  3.669304E-03 -1.226715E+02  2.923642E-03 -1.616281E+02 
 3.669304E-03 -1.226715E+02  4.721107E-01 1.509801E+01  8.350923E-01 -7.236041E+01 
 2.923642E-03 -1.616281E+02  8.350923E-01 -7.236041E+01  4.712147E-01 1.311810E+01 
1.625312500E+03  9.350218E-01 -4.987378E+01  3.693435E-03 -1.224088E+02  2.807876E-03 -1.624877E+02 
 3.693435E-03 -1.224088E+02  4.729558E-01 1.504499E+01  8.346329E-01 -7.241804E+01 
 2.807876E-03 -1.624877E+02  8.346329E-01 -7.241804E+01  4.720546E-01 1.304685E+01 
1.625625000E+03  9.350118E-01 -4.999245E+01  3.763695E-03 -1.231728E+02  2.726081E-03 -1.613144E+02 
 3.763695E-03 -1.231728E+02  4.739023E-01 1.496732E+01  8.343282E-01 -7.248437E+01 
 2.726081E-03 -1.613144E+02  8.343282E-01 -7.248437E+01  4.729698E-01 1.298137E+01 
1.625937500E+03  9.353642E-01 -5.009752E+01  3.778068E-03 -1.238555E+02  2.671510E-03 -1.603449E+02 
 3.778068E-03 -1.238555E+02  4.745249E-01 1.490716E+01  8.338759E-01 -7.255359E+01 
 2.671510E-03 -1.603449E+02  8.338759E-01 -7.255359E+01  4.738560E-01 1.288524E+01 
1.626250000E+03  9.354741E-01 -5.019048E+01  3.814742E-03 -1.250206E+02  2.598450E-03 -1.573972E+02 
 3.814742E-03 -1.250206E+02  4.751898E-01 1.485697E+01  8.334046E-01 -7.260326E+01 
 2.598450E-03 -1.573972E+02  8.334046E-01 -7.260326E+01  4.743695E-01 1.281694E+01 
1.626562500E+03  9.355591E-01 -5.029600E+01  3.908212E-03 -1.257065E+02  2.581628E-03 -1.569072E+02 
 3.908212E-03 -1.257065E+02  4.760503E-01 1.478908E+01  8.330180E-01 -7.267580E+01 
 2.581628E-03 -1.569072E+02  8.330180E-01 -7.267580E+01  4.753094E-01 1.273938E+01 
1.626875000E+03  9.353971E-01 -5.036499E+01  3.923754E-03 -1.279233E+02  2.561285E-03 -1.551959E+02 
 3.923754E-03 -1.279233E+02  4.765887E-01 1.471690E+01  8.325545E-01 -7.272611E+01 
 2.561285E-03 -1.551959E+02  8.325545E-01 -7.272611E+01  4.758678E-01 1.265319E+01 
1.627187500E+03  9.353979E-01 -5.046332E+01  3.896605E-03 -1.298748E+02  2.532610E-03 -1.527423E+02 
 3.896605E-03 -1.298748E+02  4.770438E-01 1.464525E+01  8.321716E-01 -7.277740E+01 
 2.532610E-03 -1.527423E+02  8.321716E-01 -7.277740E+01  4.763095E-01 1.261416E+01 
1.627500000E+03  9.354654E-01 -5.058096E+01  3.830800E-03 -1.308419E+02  2.567041E-03 -1.491553E+02 
 3.830800E-03 -1.308419E+02  4.780271E-01 1.462285E+01  8.319121E-01 -7.284561E+01 
 2.567041E-03 -1.491553E+02  8.319121E-01 -7.284561E+01  4.769096E-01 1.254939E+01 
1.627812500E+03  9.355443E-01 -5.064909E+01  3.822621E-03 -1.311969E+02  2.667378E-03 -1.476870E+02 
 3.822621E-03 -1.311969E+02  4.784484E-01 1.457138E+01  8.315171E-01 -7.289410E+01 
 2.667378E-03 -1.476870E+02  8.315171E-01 -7.289410E+01  4.774817E-01 1.249347E+01 
1.628125000E+03  9.356909E-01 -5.074249E+01  3.775142E-03 -1.323374E+02  2.787587E-03 -1.476775E+02 
 3.775142E-03 -1.323374E+02  4.791941E-01 1.448950E+01  8.309640E-01 -7.297043E+01 
 2.787587E-03 -1.476775E+02  8.309640E-01 -7.297043E+01  4.782424E-01 1.243826E+01 
1.628437500E+03  9.353338E-01 -5.079960E+01  3.687091E-03 -1.329815E+02  2.799152E-03 -1.473983E+02 
 3.687091E-03 -1.329815E+02  4.796700E-01 1.441118E+01  8.303194E-01 -7.302440E+01 
 2.799152E-03 -1.473983E+02  8.303194E-01 -7.302440E+01  4.788423E-01 1.239928E+01 
1.628750000E+03  9.351616E-01 -5.090289E+01  3.715488E-03 -1.327319E+02  2.842815E-03 -1.466578E+02 
 3.715488E-03 -1.327319E+02  4.803668E-01 1.435062E+01  8.297517E-01 -7.307282E+01 
 2.842815E-03 -1.466578E+02  8.297517E-01 -7.307282E+01  4.795112E-01 1.236026E+01 
1.629062500E+03  9.355031E-01 -5.096575E+01  3.686743E-03 -1.329907E+02  2.915023E-03 -1.473548E+02 
 3.686743E-03 -1.329907E+02  4.811169E-01 1.428636E+01  8.293619E-01 -7.313394E+01 
 2.915023E-03 -1.473548E+02  8.293619E-01 -7.313394E+01  4.804171E-01 1.229402E+01 
1.629375000E+03  9.356344E-01 -5.104325E+01  3.615673E-03 -1.330772E+02  2.960256E-03 -1.473212E+02 
 3.615673E-03 -1.330772E+02  4.816977E-01 1.421772E+01  8.289383E-01 -7.318717E+01 
 2.960256E-03 -1.473212E+02  8.289383E-01 -7.318717E+01  4.811124E-01 1.225804E+01 
1.629687500E+03  9.356522E-01 -5.116643E+01  3.633734E-03 -1.322601E+02  2.959414E-03 -1.478400E+02 
 3.633734E-03 -1.322601E+02  4.825223E-01 1.415740E+01  8.283123E-01 -7.326243E+01 
 2.959414E-03 -1.478400E+02  8.283123E-01 -7.326243E+01  4.820233E-01 1.216110E+01 
1.630000000E+03  9.350040E-01 -5.126359E+01  3.718404E-03 -1.324236E+02  2.954488E-03 -1.475466E+02 
 3.718404E-03 -1.324236E+02  4.833915E-01 1.407948E+01  8.276653E-01 -7.333075E+01 
 2.954488E-03 -1.475466E+02  8.276653E-01 -7.333075E+01  4.829385E-01 1.208276E+01 
1.630312500E+03  9.349337E-01 -5.136567E+01  3.768372E-03 -1.332990E+02  2.953435E-03 -1.475016E+02 
 3.768372E-03 -1.332990E+02  4.843185E-01 1.401305E+01  8.272396E-01 -7.339042E+01 
 2.953435E-03 -1.475016E+02  8.272396E-01 -7.339042E+01  4.837303E-01 1.202553E+01 
1.630625000E+03  9.347233E-01 -5.145655E+01  3.817461E-03 -1.337907E+02  2.967525E-03 -1.473365E+02 
 3.817461E-03 -1.337907E+02  4.847976E-01 1.393514E+01  8.265073E-01 -7.344640E+01 
 2.967525E-03 -1.473365E+02  8.265073E-01 -7.344640E+01  4.847450E-01 1.190908E+01 
1.630937500E+03  9.347944E-01 -5.155643E+01  3.893681E-03 -1.350561E+02  2.931319E-03 -1.472457E+02 
 3.893681E-03 -1.350561E+02  4.858447E-01 1.387587E+01  8.262972E-01 -7.349040E+01 
 2.931319E-03 -1.472457E+02  8.262972E-01 -7.349040E+01  4.850938E-01 1.185576E+01 
1.631250000E+03  9.341275E-01 -5.162961E+01  3.906860E-03 -1.368596E+02  2.946922E-03 -1.465234E+02 
 3.906860E-03 -1.368596E+02  4.865952E-01 1.380113E+01  8.260484E-01 -7.354855E+01 
 2.946922E-03 -1.465234E+02  8.260484E-01 -7.354855E+01  4.857405E-01 1.180555E+01 
1.631562500E+03  9.341878E-01 -5.169825E+01  3.852912E-03 -1.384541E+02  2.971453E-03 -1.453770E+02 
 3.852912E-03 -1.384541E+02  4.871060E-01 1.372683E+01  8.255690E-01 -7.360468E+01 
 2.971453E-03 -1.453770E+02  8.255690E-01 -7.360468E+01  4.864214E-01 1.172162E+01 
1.631875000E+03  9.342869E-01 -5.179522E+01  3.843790E-03 -1.389995E+02  2.994008E-03 -1.447584E+02 
 3.843790E-03 -1.389995E+02  4.879685E-01 1.363511E+01  8.250162E-01 -7.366514E+01 
 2.994008E-03 -1.447584E+02  8.250162E-01 -7.366514E+01  4.869059E-01 1.165349E+01 
1.632187500E+03  9.340024E-01 -5.191849E+01  3.809871E-03 -1.407940E+02  3.065014E-03 -1.435655E+02 
 3.809871E-03 -1.407940E+02  4.885575E-01 1.357004E+01  8.246103E-01 -7.371323E+01 
 3.065014E-03 -1.435655E+02  8.246103E-01 -7.371323E+01  4.874165E-01 1.158020E+01 
1.632500000E+03  9.338589E-01 -5.200741E+01  3.757711E-03 -1.417926E+02  3.075609E-03 -1.440174E+02 
 3.757711E-03 -1.417926E+02  4.893226E-01 1.349500E+01  8.241968E-01 -7.378163E+01 
 3.075609E-03 -1.440174E+02  8.241968E-01 -7.378163E+01  4.881064E-01 1.150917E+01 
1.632812500E+03  9.331570E-01 -5.213160E+01  3.705546E-03 -1.423225E+02  3.119311E-03 -1.436397E+02 
 3.705546E-03 -1.423225E+02  4.894574E-01 1.342262E+01  8.235903E-01 -7.382193E+01 
 3.119311E-03 -1.436397E+02  8.235903E-01 -7.382193E+01  4.887050E-01 1.143829E+01 
1.633125000E+03  9.326702E-01 -5.223684E+01  3.655972E-03 -1.431893E+02  3.176601E-03 -1.426247E+02 
 3.655972E-03 -1.431893E+02  4.898503E-01 1.339162E+01  8.233098E-01 -7.385121E+01 
 3.176601E-03 -1.426247E+02  8.233098E-01 -7.385121E+01  4.890181E-01 1.138602E+01 
1.633437500E+03  9.316750E-01 -5.233658E+01  3.598134E-03 -1.441330E+02  3.249661E-03 -1.428048E+02 
 3.598134E-03 -1.441330E+02  4.906837E-01 1.335378E+01  8.232119E-01 -7.390290E+01 
 3.249661E-03 -1.428048E+02  8.232119E-01 -7.390290E+01  4.894271E-01 1.136310E+01 
1.633750000E+03  9.306888E-01 -5.243549E+01  3.501049E-03 -1.449125E+02  3.328553E-03 -1.426152E+02 
 3.501049E-03 -1.449125E+02  4.913681E-01 1.332603E+01  8.230166E-01 -7.395320E+01 
 3.328553E-03 -1.426152E+02  8.230166E-01 -7.395320E+01  4.900748E-01 1.131491E+01 
1.634062500E+03  9.298079E-01 -5.250873E+01  3.509106E-03 -1.446177E+02  3.321967E-03 -1.438050E+02 
 3.509106E-03 -1.446177E+02  4.920820E-01 1.327320E+01  8.226930E-01 -7.401314E+01 