! Matrix data file written by TouchstoneData, EPCOS AG
! FILENAME: "ansys_B4322_02_NB.s4p"
! COMMENT: "(B4322_02_NB.s4p) Epcos AG 2/21/2013 5:13:41"
! INFO: nport=4, nfreq=1601
! DATE: "Tue Mar 19 16:50:57 2013"
! USER: "Daniel Harbusch"
!
! port | pin | signal
! -----|-----|--------
!   1  |  3  |  NON-GPS/GLONASS out
!   2  |  6  |  ANT input
!   3  |  1  |  GPS/GLONASS balanced out
!   4  |  8  |  GPS/GLONASS balanced out
! --------------------
! 
# MHZ S MA R 50
! freq  magS11 angS11  magS12 angS12  magS13 angS13  magS14 angS14  ...
1.488000000E+03  3.316164E-01 -6.693993E+01  8.677140E-01 -1.803991E+00  5.226099E-03 9.849094E+00  2.128278E-03 8.233474E+01 
8.653976E-01 -1.625150E+00  3.636807E-01 -1.232368E+02  3.961047E-03 4.406198E+01  1.707806E-03 4.309879E+01 
5.244154E-03 1.041333E+01  3.963987E-03 4.396072E+01  9.233816E-01 -1.141731E+02  6.380357E-02 1.452693E+02 
2.102413E-03 8.245576E+01  1.729841E-03 4.360588E+01  6.385047E-02 1.452497E+02  9.370011E-01 -1.109294E+02 
1.488125000E+03  3.315966E-01 -6.699850E+01  8.682073E-01 -1.841911E+00  5.156243E-03 9.831725E+00  2.012226E-03 8.394736E+01 
8.656354E-01 -1.673077E+00  3.636193E-01 -1.232640E+02  3.874810E-03 4.454291E+01  1.614688E-03 4.437746E+01 
5.137600E-03 9.707499E+00  3.860897E-03 4.439850E+01  9.233147E-01 -1.141872E+02  6.405691E-02 1.454554E+02 
1.994082E-03 8.414055E+01  1.620775E-03 4.482749E+01  6.412065E-02 1.454563E+02  9.369340E-01 -1.109945E+02 
1.488250000E+03  3.315251E-01 -6.706069E+01  8.681343E-01 -1.886514E+00  5.076801E-03 8.845920E+00  1.958010E-03 8.721947E+01 
8.661414E-01 -1.695909E+00  3.636722E-01 -1.232883E+02  3.781849E-03 4.460474E+01  1.519454E-03 4.642021E+01 
5.090434E-03 9.106793E+00  3.779516E-03 4.419027E+01  9.230983E-01 -1.142212E+02  6.449514E-02 1.454511E+02 
1.977173E-03 8.754553E+01  1.556716E-03 4.708136E+01  6.470106E-02 1.454007E+02  9.372861E-01 -1.110594E+02 
1.488375000E+03  3.316503E-01 -6.709099E+01  8.688985E-01 -1.908099E+00  4.911867E-03 8.783889E+00  1.940922E-03 9.034687E+01 
8.663872E-01 -1.736377E+00  3.634827E-01 -1.232997E+02  3.677224E-03 4.643018E+01  1.464849E-03 5.110703E+01 
4.897090E-03 9.033150E+00  3.678161E-03 4.632671E+01  9.230233E-01 -1.142380E+02  6.497000E-02 1.452263E+02 
1.943911E-03 9.100101E+01  1.453601E-03 4.961965E+01  6.493758E-02 1.452016E+02  9.373728E-01 -1.111307E+02 
1.488500000E+03  3.317590E-01 -6.716914E+01  8.690675E-01 -1.981303E+00  4.853660E-03 9.406911E+00  1.970118E-03 9.323443E+01 
8.665273E-01 -1.799803E+00  3.634174E-01 -1.233522E+02  3.745543E-03 4.764447E+01  1.481885E-03 5.431026E+01 
4.823565E-03 9.895378E+00  3.751321E-03 4.813997E+01  9.231629E-01 -1.142581E+02  6.513432E-02 1.450727E+02 
1.986032E-03 9.359011E+01  1.453832E-03 5.429576E+01  6.523760E-02 1.450048E+02  9.376156E-01 -1.111896E+02 
1.488625000E+03  3.316913E-01 -6.723138E+01  8.689250E-01 -2.014538E+00  4.853631E-03 9.733826E+00  1.987801E-03 9.544735E+01 
8.666399E-01 -1.838216E+00  3.635533E-01 -1.233814E+02  3.715386E-03 4.783525E+01  1.472416E-03 5.656271E+01 
4.823881E-03 9.905638E+00  3.727694E-03 4.745393E+01  9.231538E-01 -1.142756E+02  6.527870E-02 1.450086E+02 
1.993153E-03 9.586684E+01  1.456036E-03 5.650961E+01  6.534562E-02 1.449192E+02  9.377349E-01 -1.112363E+02 
1.488750000E+03  3.318393E-01 -6.729930E+01  8.690718E-01 -2.053278E+00  4.755156E-03 1.009448E+01  2.020838E-03 9.782076E+01 
8.667966E-01 -1.882237E+00  3.636903E-01 -1.234142E+02  3.711578E-03 4.921135E+01  1.470831E-03 6.006096E+01 
4.741771E-03 1.018946E+01  3.722679E-03 4.887123E+01  9.231701E-01 -1.143217E+02  6.541423E-02 1.447926E+02 
2.008862E-03 9.775800E+01  1.448957E-03 5.980880E+01  6.540134E-02 1.447781E+02  9.379331E-01 -1.113042E+02 
1.488875000E+03  3.318968E-01 -6.737312E+01  8.693484E-01 -2.108193E+00  4.757644E-03 1.082515E+01  2.069419E-03 9.888968E+01 
8.668923E-01 -1.942978E+00  3.637993E-01 -1.234599E+02  3.752483E-03 4.964704E+01  1.481232E-03 6.248870E+01 
4.744887E-03 1.113047E+01  3.771553E-03 4.925607E+01  9.229262E-01 -1.143419E+02  6.545588E-02 1.446638E+02 
2.055110E-03 9.988184E+01  1.473177E-03 6.219233E+01  6.556267E-02 1.445593E+02  9.381637E-01 -1.113717E+02 
1.489000000E+03  3.318724E-01 -6.745998E+01  8.691703E-01 -2.157046E+00  4.714284E-03 1.117981E+01  2.076368E-03 1.010742E+02 
8.669831E-01 -1.982551E+00  3.638189E-01 -1.234943E+02  3.780613E-03 4.970173E+01  1.498673E-03 6.476170E+01 
4.685237E-03 1.135730E+01  3.778277E-03 4.952938E+01  9.225107E-01 -1.143791E+02  6.546474E-02 1.446221E+02 
2.102623E-03 1.014485E+02  1.517013E-03 6.395712E+01  6.553505E-02 1.444798E+02  9.383129E-01 -1.114561E+02 
1.489125000E+03  3.318987E-01 -6.751634E+01  8.693908E-01 -2.201561E+00  4.717465E-03 1.190968E+01  2.166377E-03 1.032212E+02 
8.670556E-01 -2.018987E+00  3.638773E-01 -1.235075E+02  3.814975E-03 5.034852E+01  1.529903E-03 6.916524E+01 
4.708255E-03 1.245000E+01  3.814647E-03 5.020758E+01  9.221242E-01 -1.143812E+02  6.532896E-02 1.445755E+02 
2.173065E-03 1.030251E+02  1.549898E-03 6.906708E+01  6.546820E-02 1.444807E+02  9.382638E-01 -1.115198E+02 
1.489250000E+03  3.320336E-01 -6.760157E+01  8.693590E-01 -2.254483E+00  4.745577E-03 1.243538E+01  2.241069E-03 1.036558E+02 
8.669706E-01 -2.076062E+00  3.640475E-01 -1.235631E+02  3.861653E-03 4.983911E+01  1.569189E-03 7.002080E+01 
4.763497E-03 1.258731E+01  3.843444E-03 4.968982E+01  9.223743E-01 -1.143714E+02  6.533186E-02 1.447788E+02 
2.221574E-03 1.036914E+02  1.599989E-03 7.037228E+01  6.533163E-02 1.446815E+02  9.380617E-01 -1.115794E+02 
1.489375000E+03  3.320108E-01 -6.768282E+01  8.692830E-01 -2.297676E+00  4.758133E-03 1.229390E+01  2.323674E-03 1.045103E+02 
8.666895E-01 -2.108767E+00  3.638914E-01 -1.236056E+02  3.869463E-03 4.989135E+01  1.626005E-03 7.187509E+01 
4.781660E-03 1.259539E+01  3.880291E-03 4.933068E+01  9.225186E-01 -1.143816E+02  6.542579E-02 1.449495E+02 
2.291787E-03 1.046659E+02  1.630377E-03 7.186445E+01  6.558148E-02 1.448490E+02  9.383830E-01 -1.116350E+02 
1.489500000E+03  3.319135E-01 -6.777465E+01  8.692059E-01 -2.341405E+00  4.789290E-03 1.304152E+01  2.417475E-03 1.054160E+02 
8.667476E-01 -2.158840E+00  3.639422E-01 -1.236469E+02  3.883398E-03 4.931751E+01  1.683371E-03 7.282653E+01 
4.784644E-03 1.292162E+01  3.861769E-03 4.963798E+01  9.228605E-01 -1.144167E+02  6.567503E-02 1.450357E+02 
2.379125E-03 1.055099E+02  1.719189E-03 7.362941E+01  6.584021E-02 1.449671E+02  9.383373E-01 -1.117042E+02 
1.489625000E+03  3.317861E-01 -6.786448E+01  8.691977E-01 -2.389426E+00  4.843404E-03 1.310178E+01  2.479271E-03 1.051814E+02 
8.667563E-01 -2.190957E+00  3.638526E-01 -1.236906E+02  3.902247E-03 4.906517E+01  1.770013E-03 7.418191E+01 
4.836513E-03 1.333583E+01  3.916380E-03 4.886506E+01  9.230741E-01 -1.144577E+02  6.596582E-02 1.450942E+02 
2.460259E-03 1.053528E+02  1.817793E-03 7.379893E+01  6.611829E-02 1.449807E+02  9.384080E-01 -1.117622E+02 
1.489750000E+03  3.316442E-01 -6.793706E+01  8.690590E-01 -2.429280E+00  4.884939E-03 1.279107E+01  2.514815E-03 1.049475E+02 
8.666972E-01 -2.232360E+00  3.637877E-01 -1.237238E+02  3.928629E-03 4.840945E+01  1.834181E-03 7.469181E+01 
4.866494E-03 1.328225E+01  3.934914E-03 4.865250E+01  9.231607E-01 -1.144912E+02  6.624820E-02 1.451236E+02 
2.532649E-03 1.049662E+02  1.834689E-03 7.420033E+01  6.637201E-02 1.449678E+02  9.386293E-01 -1.118286E+02 
1.489875000E+03  3.314908E-01 -6.801735E+01  8.691820E-01 -2.471196E+00  4.948146E-03 1.310471E+01  2.590090E-03 1.046225E+02 
8.668140E-01 -2.293873E+00  3.638106E-01 -1.237743E+02  3.964956E-03 4.840738E+01  1.921319E-03 7.462813E+01 
4.953055E-03 1.308365E+01  3.973814E-03 4.857639E+01  9.233308E-01 -1.145528E+02  6.643305E-02 1.450808E+02 
2.578824E-03 1.047864E+02  1.915563E-03 7.503319E+01  6.651303E-02 1.449375E+02  9.388201E-01 -1.118811E+02 
1.490000000E+03  3.312535E-01 -6.807489E+01  8.689710E-01 -2.503204E+00  5.058991E-03 1.259161E+01  2.664284E-03 1.047397E+02 
8.665440E-01 -2.323629E+00  3.636097E-01 -1.237988E+02  3.974595E-03 4.672884E+01  1.959472E-03 7.535397E+01 
5.052748E-03 1.255021E+01  4.008713E-03 4.656440E+01  9.229264E-01 -1.145862E+02  6.654237E-02 1.450228E+02 
2.648627E-03 1.039158E+02  1.972650E-03 7.473213E+01  6.658726E-02 1.449378E+02  9.388947E-01 -1.119584E+02 
1.490125000E+03  3.311377E-01 -6.816720E+01  8.690000E-01 -2.562016E+00  5.091532E-03 1.083310E+01  2.691500E-03 1.047861E+02 
8.664995E-01 -2.382694E+00  3.636514E-01 -1.238494E+02  3.904859E-03 4.517397E+01  1.987772E-03 7.474584E+01 
5.065862E-03 1.135770E+01  3.930711E-03 4.546794E+01  9.222787E-01 -1.146060E+02  6.676127E-02 1.450219E+02 
2.675774E-03 1.042606E+02  2.029668E-03 7.536497E+01  6.684307E-02 1.449669E+02  9.388123E-01 -1.120267E+02 
1.490250000E+03  3.309137E-01 -6.822036E+01  8.689290E-01 -2.590084E+00  5.104548E-03 1.057617E+01  2.801540E-03 1.041888E+02 
8.662760E-01 -2.420675E+00  3.634223E-01 -1.238765E+02  3.877437E-03 4.471350E+01  2.076575E-03 7.614228E+01 
5.086488E-03 1.084881E+01  3.868511E-03 4.430382E+01  9.221454E-01 -1.146087E+02  6.690354E-02 1.449993E+02 
2.783087E-03 1.042095E+02  2.116223E-03 7.616189E+01  6.702168E-02 1.448931E+02  9.387061E-01 -1.121001E+02 
1.490375000E+03  3.306776E-01 -6.826552E+01  8.689125E-01 -2.622813E+00  5.108610E-03 9.298799E+00  2.864167E-03 1.033032E+02 
8.662541E-01 -2.455334E+00  3.633343E-01 -1.239046E+02  3.822808E-03 4.336220E+01  2.157404E-03 7.519145E+01 
5.104835E-03 9.831854E+00  3.857067E-03 4.341305E+01  9.220006E-01 -1.146042E+02  6.710335E-02 1.450153E+02 
2.859028E-03 1.035667E+02  2.197808E-03 7.499601E+01  6.717392E-02 1.450479E+02  9.388673E-01 -1.121564E+02 
1.490500000E+03  3.303806E-01 -6.831574E+01  8.687208E-01 -2.673914E+00  5.075985E-03 8.156844E+00  2.866751E-03 1.029349E+02 
8.661248E-01 -2.492326E+00  3.632055E-01 -1.239200E+02  3.707207E-03 4.249225E+01  2.215158E-03 7.541331E+01 
5.102595E-03 8.432413E+00  3.747399E-03 4.250338E+01  9.221201E-01 -1.146042E+02  6.741507E-02 1.450543E+02 
2.879456E-03 1.030929E+02  2.211573E-03 7.537306E+01  6.741618E-02 1.449243E+02  9.385774E-01 -1.122235E+02 
1.490625000E+03  3.300944E-01 -6.835729E+01  8.685669E-01 -2.697754E+00  5.111673E-03 7.435592E+00  2.977475E-03 1.033353E+02 
8.660938E-01 -2.540712E+00  3.630797E-01 -1.239512E+02  3.668574E-03 4.254786E+01  2.321187E-03 7.550523E+01 
5.115158E-03 7.804543E+00  3.683304E-03 4.151497E+01  9.222650E-01 -1.146088E+02  6.763089E-02 1.448784E+02 
2.954916E-03 1.033767E+02  2.305250E-03 7.549897E+01  6.756287E-02 1.448649E+02  9.382145E-01 -1.122742E+02 
1.490750000E+03  3.297647E-01 -6.841166E+01  8.684029E-01 -2.738987E+00  5.101827E-03 6.293808E+00  3.083385E-03 1.023527E+02 
8.657852E-01 -2.575583E+00  3.629160E-01 -1.239719E+02  3.581206E-03 4.142690E+01  2.402142E-03 7.444801E+01 
5.098022E-03 6.499816E+00  3.632202E-03 4.112152E+01  9.228355E-01 -1.146258E+02  6.778787E-02 1.446593E+02 
3.063730E-03 1.021834E+02  2.405238E-03 7.354337E+01  6.787676E-02 1.446733E+02  9.381325E-01 -1.123211E+02 
1.490875000E+03  3.292658E-01 -6.845911E+01  8.680879E-01 -2.771659E+00  5.030801E-03 4.695261E+00  3.139723E-03 1.011986E+02 
8.655458E-01 -2.615109E+00  3.627371E-01 -1.240138E+02  3.434547E-03 4.018336E+01  2.483957E-03 7.263961E+01 
5.037335E-03 4.627432E+00  3.419224E-03 4.003954E+01  9.228761E-01 -1.146058E+02  6.774257E-02 1.445567E+02 
3.152458E-03 1.008700E+02  2.520754E-03 7.285945E+01  6.780097E-02 1.445629E+02  9.381452E-01 -1.123785E+02 
1.491000000E+03  3.288505E-01 -6.844669E+01  8.680986E-01 -2.802393E+00  4.953767E-03 3.494456E+00  3.242030E-03 9.955393E+01 
8.654374E-01 -2.637606E+00  3.625013E-01 -1.239970E+02  3.335000E-03 4.112587E+01  2.560636E-03 7.082642E+01 
4.953236E-03 3.943225E+00  3.355991E-03 4.088622E+01  9.237624E-01 -1.145999E+02  6.756436E-02 1.445325E+02 
3.236346E-03 9.999484E+01  2.596565E-03 7.153982E+01  6.750573E-02 1.445432E+02  9.381514E-01 -1.124214E+02 
1.491125000E+03  3.283852E-01 -6.841620E+01  8.679097E-01 -2.819916E+00  4.852368E-03 2.354875E+00  3.254668E-03 9.806163E+01 
8.653750E-01 -2.670352E+00  3.622446E-01 -1.239995E+02  3.161874E-03 4.066434E+01  2.617269E-03 6.957625E+01 
4.842012E-03 2.262819E+00  3.186638E-03 4.111442E+01  9.247314E-01 -1.146051E+02  6.752541E-02 1.447735E+02 
3.237377E-03 9.797802E+01  2.634601E-03 6.934033E+01  6.759582E-02 1.446929E+02  9.383550E-01 -1.124875E+02 
1.491250000E+03  3.279947E-01 -6.838435E+01  8.676976E-01 -2.850832E+00  4.694594E-03 1.827813E+00  3.270996E-03 9.649923E+01 
8.653574E-01 -2.700564E+00  3.620497E-01 -1.239774E+02  3.041492E-03 4.342181E+01  2.630496E-03 6.770785E+01 
4.707696E-03 2.030585E+00  3.056557E-03 4.289469E+01  9.256692E-01 -1.146406E+02  6.771749E-02 1.449976E+02 
3.279388E-03 9.671477E+01  2.661457E-03 6.801429E+01  6.766690E-02 1.449126E+02  9.385846E-01 -1.125540E+02 
1.491375000E+03  3.278183E-01 -6.834480E+01  8.676136E-01 -2.878368E+00  4.572821E-03 1.717388E+00  3.319308E-03 9.526719E+01 
8.653930E-01 -2.717702E+00  3.622394E-01 -1.239537E+02  2.989622E-03 4.531161E+01  2.677548E-03 6.740433E+01 
4.582604E-03 2.068775E+00  3.014210E-03 4.502487E+01  9.269759E-01 -1.146845E+02  6.797116E-02 1.450711E+02 
3.294103E-03 9.576760E+01  2.677217E-03 6.702040E+01  6.797746E-02 1.450744E+02  9.386938E-01 -1.126156E+02 
1.491500000E+03  3.278682E-01 -6.828935E+01  8.679099E-01 -2.892212E+00  4.500310E-03 2.196963E+00  3.333726E-03 9.412941E+01 
8.651316E-01 -2.746646E+00  3.620829E-01 -1.239387E+02  2.958893E-03 4.686443E+01  2.748686E-03 6.600313E+01 
4.525446E-03 2.020270E+00  2.969889E-03 4.624969E+01  9.275532E-01 -1.147461E+02  6.830248E-02 1.451375E+02 
3.327359E-03 9.429229E+01  2.717395E-03 6.640481E+01  6.837984E-02 1.450608E+02  9.388732E-01 -1.126913E+02 
1.491625000E+03  3.277245E-01 -6.826150E+01  8.676907E-01 -2.914600E+00  4.403040E-03 2.059911E+00  3.334771E-03 9.277853E+01 
8.650211E-01 -2.767772E+00  3.619989E-01 -1.239292E+02  2.931155E-03 4.919936E+01  2.735077E-03 6.429902E+01 
4.385048E-03 1.960057E+00  2.919953E-03 4.875789E+01  9.283619E-01 -1.148104E+02  6.853494E-02 1.450209E+02 
3.312012E-03 9.286964E+01  2.733465E-03 6.441041E+01  6.848872E-02 1.450993E+02  9.387768E-01 -1.127596E+02 
1.491750000E+03  3.277944E-01 -6.823166E+01  8.677125E-01 -2.943689E+00  4.355830E-03 3.537663E+00  3.365077E-03 9.144344E+01 
8.650753E-01 -2.779693E+00  3.621725E-01 -1.239216E+02  2.981824E-03 5.020710E+01  2.781290E-03 6.362483E+01 
4.351517E-03 3.157803E+00  2.992934E-03 5.068641E+01  9.289672E-01 -1.148781E+02  6.862984E-02 1.449208E+02 
3.347719E-03 9.200940E+01  2.760656E-03 6.308587E+01  6.858009E-02 1.450257E+02  9.388757E-01 -1.128384E+02 
1.491875000E+03  3.279740E-01 -6.823022E+01  8.680151E-01 -2.968497E+00  4.352765E-03 3.176360E+00  3.358787E-03 9.055730E+01 
8.653059E-01 -2.796742E+00  3.622424E-01 -1.238965E+02  2.976832E-03 5.046685E+01  2.768198E-03 6.144495E+01 
4.345314E-03 3.512204E+00  2.969167E-03 4.998050E+01  9.292738E-01 -1.149229E+02  6.866145E-02 1.450295E+02 
3.352921E-03 9.064012E+01  2.757142E-03 6.157310E+01  6.867147E-02 1.450044E+02  9.389594E-01 -1.129003E+02 
1.492000000E+03  3.282272E-01 -6.823571E+01  8.682833E-01 -2.977778E+00  4.273833E-03 3.075132E+00  3.385959E-03 9.016153E+01 
8.652433E-01 -2.813831E+00  3.623891E-01 -1.238995E+02  2.918045E-03 5.164735E+01  2.759210E-03 6.085344E+01 
4.267972E-03 3.112850E+00  2.951364E-03 5.201606E+01  9.300011E-01 -1.149814E+02  6.890902E-02 1.450946E+02 
3.368747E-03 9.084605E+01  2.779349E-03 6.105503E+01  6.897766E-02 1.450601E+02  9.388921E-01 -1.129728E+02 
1.492125000E+03  3.284522E-01 -6.826808E+01  8.685412E-01 -3.029430E+00  4.230455E-03 3.545976E+00  3.389114E-03 8.962671E+01 
8.655581E-01 -2.864296E+00  3.624992E-01 -1.239461E+02  2.962523E-03 5.290594E+01  2.801338E-03 6.059501E+01 
4.233384E-03 3.790555E+00  2.971111E-03 5.260787E+01  9.304465E-01 -1.150339E+02  6.910087E-02 1.451067E+02 
3.395191E-03 8.960887E+01  2.806114E-03 6.099863E+01  6.915827E-02 1.450886E+02  9.389441E-01 -1.130487E+02 
1.492250000E+03  3.284192E-01 -6.828817E+01  8.684778E-01 -3.048251E+00  4.182540E-03 3.672369E+00  3.442039E-03 8.820405E+01 
8.655896E-01 -2.886691E+00  3.625330E-01 -1.239326E+02  2.974681E-03 5.348861E+01  2.859922E-03 5.913224E+01 
4.196293E-03 4.315477E+00  2.952267E-03 5.348347E+01  9.308622E-01 -1.150915E+02  6.918831E-02 1.451453E+02 
3.422234E-03 8.839270E+01  2.850843E-03 5.935791E+01  6.922583E-02 1.451266E+02  9.389476E-01 -1.131168E+02 
1.492375000E+03  3.287426E-01 -6.834059E+01  8.687443E-01 -3.075922E+00  4.181200E-03 4.438979E+00  3.435103E-03 8.742183E+01 
8.656062E-01 -2.898426E+00  3.626042E-01 -1.239347E+02  3.013735E-03 5.447443E+01  2.831503E-03 5.862838E+01 
4.171629E-03 4.069137E+00  3.009035E-03 5.454590E+01  9.315506E-01 -1.151434E+02  6.943084E-02 1.452300E+02 
3.420457E-03 8.731274E+01  2.861220E-03 5.876006E+01  6.955204E-02 1.452712E+02  9.389953E-01 -1.131936E+02 
1.492500000E+03  3.289120E-01 -6.843595E+01  8.689612E-01 -3.115443E+00  4.168956E-03 4.154958E+00  3.478225E-03 8.628231E+01 
8.661071E-01 -2.953917E+00  3.628987E-01 -1.239824E+02  3.003488E-03 5.435181E+01  2.885355E-03 5.772560E+01 
4.196810E-03 4.711855E+00  2.998437E-03 5.430561E+01  9.325245E-01 -1.152258E+02  6.966513E-02 1.452973E+02 
3.458500E-03 8.673507E+01  2.902739E-03 5.766558E+01  6.975999E-02 1.452624E+02  9.388926E-01 -1.132620E+02 
1.492625000E+03  3.287704E-01 -6.850222E+01  8.692247E-01 -3.143889E+00  4.169047E-03 3.613646E+00  3.529095E-03 8.470805E+01 
8.661707E-01 -2.967269E+00  3.628787E-01 -1.239991E+02  2.985256E-03 5.484739E+01  2.940137E-03 5.670104E+01 
4.159655E-03 4.120407E+00  2.988118E-03 5.442281E+01  9.332435E-01 -1.153067E+02  6.997845E-02 1.452807E+02 
3.497826E-03 8.525975E+01  2.964190E-03 5.600119E+01  7.006225E-02 1.452763E+02  9.388758E-01 -1.133350E+02 
1.492750000E+03  3.286584E-01 -6.855684E+01  8.693220E-01 -3.167630E+00  4.118589E-03 3.316775E+00  3.519853E-03 8.355530E+01 
8.664959E-01 -2.993752E+00  3.629520E-01 -1.240160E+02  2.935062E-03 5.524150E+01  2.947251E-03 5.463060E+01 
4.099080E-03 3.414213E+00  2.936724E-03 5.494102E+01  9.335452E-01 -1.153959E+02  7.019266E-02 1.453215E+02 
3.493351E-03 8.369968E+01  2.984571E-03 5.464267E+01  7.032434E-02 1.452957E+02  9.388534E-01 -1.134040E+02 
1.492875000E+03  3.286711E-01 -6.861237E+01  8.696568E-01 -3.210220E+00  4.095111E-03 3.253008E+00  3.519719E-03 8.260730E+01 
8.664297E-01 -3.044808E+00  3.628723E-01 -1.240402E+02  2.897157E-03 5.660735E+01  2.973734E-03 5.347287E+01 
4.079296E-03 3.260159E+00  2.919658E-03 5.631273E+01  9.339683E-01 -1.154827E+02  7.051037E-02 1.452860E+02 
3.535748E-03 8.236897E+01  2.978852E-03 5.313848E+01  7.041727E-02 1.453664E+02  9.386886E-01 -1.134610E+02 
1.493000000E+03  3.285507E-01 -6.868528E+01  8.698566E-01 -3.265905E+00  4.041991E-03 3.154132E+00  3.520783E-03 8.094065E+01 
8.666026E-01 -3.084133E+00  3.628320E-01 -1.240755E+02  2.920409E-03 5.647731E+01  2.974933E-03 5.201843E+01 
4.045739E-03 3.415746E+00  2.937163E-03 5.657619E+01  9.338839E-01 -1.155653E+02  7.064599E-02 1.452802E+02 
3.529631E-03 8.093991E+01  2.983572E-03 5.226580E+01  7.065044E-02 1.452186E+02  9.386767E-01 -1.135381E+02 
1.493125000E+03  3.284012E-01 -6.873635E+01  8.700408E-01 -3.302926E+00  4.015615E-03 2.810628E+00  3.501367E-03 7.988675E+01 
8.668930E-01 -3.105357E+00  3.628559E-01 -1.240672E+02  2.891297E-03 5.707288E+01  2.972459E-03 5.113755E+01 
3.980344E-03 3.116189E+00  2.904026E-03 5.713700E+01  9.340391E-01 -1.156638E+02  7.091932E-02 1.452158E+02 
3.510688E-03 7.986234E+01  3.002037E-03 5.122334E+01  7.086030E-02 1.452442E+02  9.387148E-01 -1.136009E+02 
1.493250000E+03  3.281352E-01 -6.878393E+01  8.701260E-01 -3.339971E+00  3.971274E-03 2.633811E+00  3.523409E-03 7.916740E+01 
8.670966E-01 -3.159031E+00  3.628686E-01 -1.241054E+02  2.873526E-03 5.807032E+01  3.015166E-03 4.986902E+01 
3.968287E-03 2.732654E+00  2.859490E-03 5.807075E+01  9.341901E-01 -1.157479E+02  7.106863E-02 1.452379E+02 
3.511818E-03 7.891609E+01  3.036782E-03 5.000005E+01  7.127204E-02 1.452606E+02  9.388011E-01 -1.136799E+02 
1.493375000E+03  3.280262E-01 -6.880956E+01  8.702585E-01 -3.373495E+00  3.870606E-03 1.654350E+00  3.539969E-03 7.714900E+01 
8.670506E-01 -3.192187E+00  3.628276E-01 -1.241172E+02  2.814983E-03 5.967225E+01  3.012746E-03 4.805998E+01 
3.887161E-03 2.484453E+00  2.878788E-03 5.928167E+01  9.343946E-01 -1.158518E+02  7.142180E-02 1.451923E+02 
3.543088E-03 7.799277E+01  3.053159E-03 4.828868E+01  7.158304E-02 1.452451E+02  9.387734E-01 -1.137368E+02 
1.493500000E+03  3.279599E-01 -6.883220E+01  8.705004E-01 -3.410670E+00  3.795287E-03 2.440629E+00  3.530603E-03 7.572472E+01 
8.671937E-01 -3.242577E+00  3.627600E-01 -1.241467E+02  2.834914E-03 6.123977E+01  2.984578E-03 4.622161E+01 
3.753609E-03 2.468046E+00  2.852983E-03 6.116527E+01  9.340698E-01 -1.159159E+02  7.174330E-02 1.451772E+02 
3.505936E-03 7.605159E+01  3.027173E-03 4.596214E+01  7.187091E-02 1.451502E+02  9.388764E-01 -1.138053E+02 
1.493625000E+03  3.279662E-01 -6.887973E+01  8.704803E-01 -3.452468E+00  3.724309E-03 2.606436E+00  3.460897E-03 7.423581E+01 
8.674582E-01 -3.274174E+00  3.626901E-01 -1.241503E+02  2.833637E-03 6.238281E+01  2.984171E-03 4.461631E+01 
3.735927E-03 3.287664E+00  2.875383E-03 6.281731E+01  9.339181E-01 -1.159861E+02  7.193399E-02 1.450882E+02 
3.453333E-03 7.478842E+01  2.973652E-03 4.503358E+01  7.207194E-02 1.451115E+02  9.389864E-01 -1.138887E+02 
1.493750000E+03  3.280162E-01 -6.890283E+01  8.708319E-01 -3.502207E+00  3.682515E-03 3.038427E+00  3.394968E-03 7.385196E+01 
8.676405E-01 -3.327330E+00  3.626572E-01 -1.241783E+02  2.889926E-03 6.350448E+01  2.934727E-03 4.424600E+01 
3.716625E-03 3.286588E+00  2.885427E-03 6.301659E+01  9.336797E-01 -1.160501E+02  7.223817E-02 1.449820E+02 
3.394675E-03 7.382710E+01  2.932169E-03 4.397536E+01  7.224354E-02 1.449956E+02  9.389229E-01 -1.139705E+02 
1.493875000E+03  3.281314E-01 -6.893777E+01  8.710740E-01 -3.529509E+00  3.657690E-03 3.636420E+00  3.406218E-03 7.362993E+01 
8.679773E-01 -3.372257E+00  3.626372E-01 -1.242015E+02  2.903565E-03 6.327428E+01  2.889529E-03 4.364437E+01 
3.649519E-03 3.566601E+00  2.913608E-03 6.412459E+01  9.336789E-01 -1.161299E+02  7.241508E-02 1.449089E+02 
3.382867E-03 7.367182E+01  2.920814E-03 4.329075E+01  7.242771E-02 1.449395E+02  9.386851E-01 -1.140395E+02 
1.494000000E+03  3.281227E-01 -6.898489E+01  8.711321E-01 -3.593739E+00  3.618033E-03 2.506464E+00  3.381818E-03 7.213420E+01 
8.681493E-01 -3.417927E+00  3.626346E-01 -1.242283E+02  2.895452E-03 6.442572E+01  2.916625E-03 4.307369E+01 
3.632830E-03 3.355323E+00  2.889891E-03 6.431426E+01  9.335946E-01 -1.161926E+02  7.256718E-02 1.448733E+02 
3.379305E-03 7.290893E+01  2.943714E-03 4.289632E+01  7.274588E-02 1.448321E+02  9.386740E-01 -1.141206E+02 
1.494125000E+03  3.281428E-01 -6.903082E+01  8.712241E-01 -3.639359E+00  3.559483E-03 3.001323E+00  3.392128E-03 7.157409E+01 
8.684993E-01 -3.448232E+00  3.625984E-01 -1.242527E+02  2.884516E-03 6.549954E+01  2.928713E-03 4.222113E+01 
3.531300E-03 2.942733E+00  2.873143E-03 6.511048E+01  9.333575E-01 -1.162580E+02  7.275551E-02 1.447728E+02 
3.361536E-03 7.162014E+01  2.936677E-03 4.204203E+01  7.279051E-02 1.447959E+02  9.384505E-01 -1.141968E+02 
1.494250000E+03  3.280491E-01 -6.907682E+01  8.713194E-01 -3.684826E+00  3.439774E-03 3.164745E+00  3.366312E-03 7.021087E+01 
8.685141E-01 -3.513172E+00  3.623953E-01 -1.243124E+02  2.862269E-03 6.678553E+01  2.908521E-03 4.084462E+01 
3.463634E-03 3.156712E+00  2.866013E-03 6.696339E+01  9.333961E-01 -1.163036E+02  7.295046E-02 1.446867E+02 
3.359428E-03 7.051106E+01  2.929405E-03 4.070597E+01  7.302192E-02 1.446645E+02  9.383785E-01 -1.142908E+02 
1.494375000E+03  3.281853E-01 -6.910289E+01  8.716268E-01 -3.722656E+00  3.388365E-03 3.910170E+00  3.353429E-03 6.990708E+01 
8.685941E-01 -3.548477E+00  3.622655E-01 -1.243127E+02  2.882587E-03 6.775222E+01  2.903014E-03 3.987704E+01 
3.385736E-03 3.565564E+00  2.897778E-03 6.783137E+01  9.332884E-01 -1.163705E+02  7.315633E-02 1.445714E+02 
3.350724E-03 7.001498E+01  2.889475E-03 4.013666E+01  7.312737E-02 1.445480E+02  9.383304E-01 -1.143835E+02 
1.494500000E+03  3.282976E-01 -6.916118E+01  8.718484E-01 -3.774504E+00  3.287684E-03 4.204841E+00  3.344565E-03 6.905912E+01 
8.686337E-01 -3.603680E+00  3.621538E-01 -1.243449E+02  2.894063E-03 6.927774E+01  2.903063E-03 3.943496E+01 
3.294135E-03 4.228420E+00  2.898220E-03 6.946733E+01  9.332570E-01 -1.164138E+02  7.322081E-02 1.445102E+02 
3.339542E-03 6.881004E+01  2.942107E-03 3.919171E+01  7.327120E-02 1.444856E+02  9.381686E-01 -1.144613E+02 
1.494625000E+03  3.282321E-01 -6.922866E+01  8.718846E-01 -3.834005E+00  3.225967E-03 5.191383E+00  3.323218E-03 6.799597E+01 
8.687886E-01 -3.654517E+00  3.619680E-01 -1.243806E+02  2.953660E-03 7.082442E+01  2.925381E-03 3.830298E+01 
3.237824E-03 4.936147E+00  2.950077E-03 7.135499E+01  9.334897E-01 -1.164887E+02  7.332340E-02 1.444697E+02 
3.328548E-03 6.784468E+01  2.906454E-03 3.815168E+01  7.336607E-02 1.444533E+02  9.380194E-01 -1.145512E+02 
1.494750000E+03  3.281990E-01 -6.927802E+01  8.718967E-01 -3.878121E+00  3.194949E-03 5.969338E+00  3.335049E-03 6.733940E+01 
8.688795E-01 -3.699607E+00  3.619552E-01 -1.243872E+02  3.002072E-03 7.216618E+01  2.910000E-03 3.770899E+01 
3.172000E-03 6.093951E+00  2.997213E-03 7.172436E+01  9.334664E-01 -1.165419E+02  7.342006E-02 1.444107E+02 
3.326714E-03 6.708744E+01  2.939481E-03 3.782071E+01  7.349568E-02 1.443080E+02  9.376451E-01 -1.146364E+02 
1.494875000E+03  3.280644E-01 -6.931648E+01  8.719495E-01 -3.927093E+00  3.136046E-03 7.240029E+00  3.325225E-03 6.586976E+01 
8.690043E-01 -3.764913E+00  3.618424E-01 -1.244323E+02  3.026063E-03 7.284088E+01  2.928104E-03 3.635882E+01 
3.129321E-03 7.815322E+00  3.035483E-03 7.260604E+01  9.333639E-01 -1.166038E+02  7.347889E-02 1.443099E+02 
3.309523E-03 6.680520E+01  2.957933E-03 3.655076E+01  7.356253E-02 1.442497E+02  9.376465E-01 -1.147162E+02 
1.495000000E+03  3.280675E-01 -6.938172E+01  8.719701E-01 -3.997878E+00  3.096913E-03 8.474747E+00  3.301883E-03 6.495398E+01 
8.690784E-01 -3.816706E+00  3.617063E-01 -1.244510E+02  3.122007E-03 7.333813E+01  2.920921E-03 3.545114E+01 
3.103437E-03 8.580143E+00  3.113029E-03 7.344949E+01  9.332826E-01 -1.166756E+02  7.346383E-02 1.442791E+02 
3.286870E-03 6.447952E+01  2.943440E-03 3.507624E+01  7.350027E-02 1.442256E+02  9.373141E-01 -1.148012E+02 
1.495125000E+03  3.279210E-01 -6.943568E+01  8.720386E-01 -4.034909E+00  3.091932E-03 9.646762E+00  3.284410E-03 6.439151E+01 
8.692095E-01 -3.873728E+00  3.616051E-01 -1.244618E+02  3.116840E-03 7.376449E+01  2.892946E-03 3.422211E+01 
3.092960E-03 9.360395E+00  3.136791E-03 7.356313E+01  9.334296E-01 -1.167459E+02  7.355575E-02 1.443538E+02 
3.280635E-03 6.402058E+01  2.890782E-03 3.421811E+01  7.357466E-02 1.442569E+02  9.368742E-01 -1.148994E+02 
1.495250000E+03  3.279446E-01 -6.947931E+01  8.720929E-01 -4.078769E+00  3.066757E-03 1.033645E+01  3.265305E-03 6.294440E+01 
8.692689E-01 -3.924885E+00  3.615899E-01 -1.244711E+02  3.175413E-03 7.489727E+01  2.920306E-03 3.333713E+01 
3.040724E-03 1.053890E+01  3.157042E-03 7.422558E+01  9.334639E-01 -1.168209E+02  7.359789E-02 1.443681E+02 
3.259527E-03 6.298425E+01  2.897016E-03 3.245483E+01  7.370446E-02 1.443344E+02  9.366935E-01 -1.149723E+02 
1.495375000E+03  3.277645E-01 -6.952917E+01  8.718960E-01 -4.143394E+00  3.019751E-03 1.160915E+01  3.243536E-03 6.227305E+01 
8.690665E-01 -3.979266E+00  3.614344E-01 -1.245096E+02  3.219927E-03 7.512736E+01  2.885099E-03 3.201127E+01 
3.041454E-03 1.157958E+01  3.231647E-03 7.514883E+01  9.337925E-01 -1.168667E+02  7.368883E-02 1.443464E+02 
3.241802E-03 6.247512E+01  2.892082E-03 3.216906E+01  7.377663E-02 1.442744E+02  9.361422E-01 -1.150705E+02 
1.495500000E+03  3.276162E-01 -6.955953E+01  8.718098E-01 -4.188702E+00  3.023117E-03 1.205336E+01  3.244978E-03 6.121399E+01 
8.689336E-01 -4.024702E+00  3.613222E-01 -1.245120E+02  3.265907E-03 7.534346E+01  2.874901E-03 3.148236E+01 
3.022617E-03 1.174555E+01  3.253958E-03 7.530049E+01  9.336519E-01 -1.169359E+02  7.365176E-02 1.444174E+02 
3.236113E-03 6.096658E+01  2.892442E-03 3.138611E+01  7.373286E-02 1.443846E+02  9.357308E-01 -1.151710E+02 
1.495625000E+03  3.273850E-01 -6.956761E+01  8.715914E-01 -4.226051E+00  2.977888E-03 1.276511E+01  3.249046E-03 6.018530E+01 
8.686944E-01 -4.072226E+00  3.611620E-01 -1.245215E+02  3.288602E-03 7.647699E+01  2.882282E-03 3.085468E+01 
3.004548E-03 1.286298E+01  3.273675E-03 7.631533E+01  9.338093E-01 -1.170180E+02  7.368381E-02 1.444470E+02 
3.247814E-03 6.036708E+01  2.888232E-03 3.060127E+01  7.374545E-02 1.443768E+02  9.350958E-01 -1.152539E+02 
1.495750000E+03  3.273972E-01 -6.960840E+01  8.715232E-01 -4.287443E+00  2.972664E-03 1.412833E+01  3.234642E-03 5.925343E+01 
8.686264E-01 -4.104473E+00  3.611295E-01 -1.245406E+02  3.299309E-03 7.690884E+01  2.908093E-03 2.933013E+01 
2.967715E-03 1.377888E+01  3.333527E-03 7.708435E+01  9.342127E-01 -1.171008E+02  7.361784E-02 1.446611E+02 
3.202001E-03 5.916789E+01  2.933517E-03 2.942563E+01  7.363727E-02 1.445996E+02  9.348527E-01 -1.153509E+02 
1.495875000E+03  3.271728E-01 -6.962175E+01  8.712013E-01 -4.338156E+00  2.919837E-03 1.434105E+01  3.209870E-03 5.828546E+01 
8.684833E-01 -4.165166E+00  3.610763E-01 -1.245800E+02  3.355769E-03 7.809595E+01  2.893342E-03 2.839411E+01 
2.942374E-03 1.458899E+01  3.355922E-03 7.757202E+01  9.341801E-01 -1.171852E+02  7.379568E-02 1.449342E+02 
3.229511E-03 5.779773E+01  2.922570E-03 2.841537E+01  7.372847E-02 1.448845E+02  9.341241E-01 -1.154423E+02 
1.496000000E+03  3.272373E-01 -6.962864E+01  8.710957E-01 -4.383258E+00  2.915940E-03 1.521381E+01  3.210342E-03 5.700102E+01 
8.684133E-01 -4.215661E+00  3.611234E-01 -1.246083E+02  3.412845E-03 7.855949E+01  2.917692E-03 2.708017E+01 