! Matrix data file written by TouchstoneData, EPCOS AG
! FILENAME: "ansys_B4328_03_WB.matched.snp"
! COMMENT: "test0 (B4328_03_WB.matched.snp)"
! INFO: nport=3, nfreq=1601
! DATE: "Mon Jul  8 13:27:58 2013"
! USER: "Daniel Harbusch"
!
! port | pin | signal
! -----|-----|--------
!   1  |  1  |  Input
!   2  |  3  |  Output balanced
!   3  |  4  |  Output balanced
! --------------------
! 
# MHZ S MA R 50
! freq  magS11 angS11  magS12 angS12  magS13 angS13  ...
5.000000000E+01  9.999961E-01 1.749567E+02  4.945114E-06 1.633820E+02  4.940218E-06 1.634129E+02 
 4.945114E-06 1.633820E+02  9.994699E-01 -2.645716E+00  2.297782E-02 8.801672E+01 
 4.940218E-06 1.634129E+02  2.297782E-02 8.801672E+01  9.994708E-01 -2.645754E+00 
5.371875000E+01  9.999946E-01 1.745811E+02  6.250282E-06 1.775394E+02  6.247927E-06 1.775420E+02 
 6.250282E-06 1.775394E+02  9.994098E-01 -2.836578E+00  2.479653E-02 8.781634E+01 
 6.247927E-06 1.775420E+02  2.479653E-02 8.781634E+01  9.994102E-01 -2.836585E+00 
5.743750000E+01  9.999940E-01 1.742053E+02  5.562209E-06 1.781591E+02  5.558054E-06 1.781541E+02 
 5.562209E-06 1.781591E+02  9.994611E-01 -3.030987E+00  2.655320E-02 8.737003E+01 
 5.558054E-06 1.781541E+02  2.655320E-02 8.737003E+01  9.994620E-01 -3.031018E+00 
6.115625000E+01  9.999940E-01 1.738295E+02  7.388307E-06 1.531225E+02  7.385192E-06 1.531139E+02 
 7.388307E-06 1.531225E+02  9.991905E-01 -3.229364E+00  2.824549E-02 8.760282E+01 
 7.385192E-06 1.531139E+02  2.824549E-02 8.760282E+01  9.991912E-01 -3.229405E+00 
6.487500000E+01  9.999931E-01 1.734535E+02  7.492821E-06 1.678972E+02  7.486966E-06 1.678971E+02 
 7.492821E-06 1.678972E+02  9.994046E-01 -3.417238E+00  3.011730E-02 8.685155E+01 
 7.486966E-06 1.678971E+02  3.011730E-02 8.685155E+01  9.994055E-01 -3.417322E+00 
6.859375000E+01  9.999805E-01 1.730772E+02  7.978556E-06 1.718668E+02  7.972467E-06 1.718633E+02 
 7.978556E-06 1.718668E+02  9.991358E-01 -3.620887E+00  3.172041E-02 8.702974E+01 
 7.972467E-06 1.718633E+02  3.172041E-02 8.702974E+01  9.991374E-01 -3.620958E+00 
7.231250000E+01  9.999903E-01 1.727013E+02  7.764133E-06 1.709648E+02  7.749553E-06 1.709427E+02 
 7.764133E-06 1.709648E+02  9.990966E-01 -3.815767E+00  3.347616E-02 8.677122E+01 
 7.749553E-06 1.709427E+02  3.347616E-02 8.677122E+01  9.990966E-01 -3.815833E+00 
7.603125000E+01  9.999870E-01 1.723247E+02  1.067772E-05 1.643651E+02  1.066540E-05 1.643405E+02 
 1.067772E-05 1.643651E+02  9.990740E-01 -4.007188E+00  3.529345E-02 8.648451E+01 
 1.066540E-05 1.643405E+02  3.529345E-02 8.648451E+01  9.990743E-01 -4.007299E+00 
7.975000000E+01  9.999867E-01 1.719481E+02  1.159934E-05 1.741834E+02  1.158272E-05 1.742309E+02 
 1.159934E-05 1.741834E+02  9.990293E-01 -4.207407E+00  3.696105E-02 8.623816E+01 
 1.158272E-05 1.742309E+02  3.696105E-02 8.623816E+01  9.990293E-01 -4.207385E+00 
8.346875000E+01  9.999895E-01 1.715714E+02  1.331871E-05 1.638632E+02  1.329577E-05 1.638369E+02 
 1.331871E-05 1.638632E+02  9.989235E-01 -4.399106E+00  3.877776E-02 8.607810E+01 
 1.329577E-05 1.638369E+02  3.877776E-02 8.607810E+01  9.989264E-01 -4.399170E+00 
8.718750000E+01  9.999876E-01 1.711944E+02  1.504948E-05 1.728722E+02  1.502154E-05 1.728446E+02 
 1.504948E-05 1.728722E+02  9.989626E-01 -4.599837E+00  4.043824E-02 8.570947E+01 
 1.502154E-05 1.728446E+02  4.043824E-02 8.570947E+01  9.989649E-01 -4.599971E+00 
9.090625000E+01  9.999850E-01 1.708169E+02  1.416887E-05 1.726599E+02  1.414575E-05 1.726607E+02 
 1.416887E-05 1.726599E+02  9.988448E-01 -4.800195E+00  4.210870E-02 8.556379E+01 
 1.414575E-05 1.726607E+02  4.210870E-02 8.556379E+01  9.988461E-01 -4.800371E+00 
9.462500000E+01  9.999866E-01 1.704402E+02  1.378353E-05 1.648195E+02  1.375582E-05 1.648040E+02 
 1.378353E-05 1.648195E+02  9.985652E-01 -4.988326E+00  4.399662E-02 8.561522E+01 
 1.375582E-05 1.648040E+02  4.399662E-02 8.561522E+01  9.985713E-01 -4.988472E+00 
9.834375000E+01  9.999819E-01 1.700629E+02  1.745401E-05 1.716260E+02  1.740679E-05 1.716434E+02 
 1.745401E-05 1.716260E+02  9.985471E-01 -5.182134E+00  4.578518E-02 8.532325E+01 
 1.740679E-05 1.716434E+02  4.578518E-02 8.532325E+01  9.985478E-01 -5.182312E+00 
1.020625000E+02  9.999815E-01 1.696847E+02  1.816144E-05 1.744259E+02  1.811196E-05 1.744187E+02 
 1.816144E-05 1.744259E+02  9.985643E-01 -5.384703E+00  4.742330E-02 8.499049E+01 
 1.811196E-05 1.744187E+02  4.742330E-02 8.499049E+01  9.985642E-01 -5.384923E+00 
1.057812500E+02  9.999707E-01 1.693071E+02  2.146335E-05 1.680533E+02  2.141199E-05 1.680612E+02 
 2.146335E-05 1.680533E+02  9.983009E-01 -5.590261E+00  4.901522E-02 8.498891E+01 
 2.141199E-05 1.680612E+02  4.901522E-02 8.498891E+01  9.983043E-01 -5.590404E+00 
1.095000000E+02  9.999807E-01 1.689291E+02  2.084898E-05 1.741693E+02  2.079154E-05 1.741505E+02 
 2.084898E-05 1.741693E+02  9.983506E-01 -5.783532E+00  5.082144E-02 8.461774E+01 
 2.079154E-05 1.741505E+02  5.082144E-02 8.461774E+01  9.983531E-01 -5.783580E+00 
1.132187500E+02  9.999691E-01 1.685503E+02  2.226916E-05 1.730114E+02  2.221677E-05 1.730285E+02 
 2.226916E-05 1.730114E+02  9.982625E-01 -5.983831E+00  5.250649E-02 8.440707E+01 
 2.221677E-05 1.730285E+02  5.250649E-02 8.440707E+01  9.982620E-01 -5.984094E+00 
1.169375000E+02  9.999625E-01 1.681721E+02  2.529852E-05 1.748432E+02  2.520029E-05 1.748116E+02 
 2.529852E-05 1.748432E+02  9.980153E-01 -6.173648E+00  5.437939E-02 8.435722E+01 
 2.520029E-05 1.748116E+02  5.437939E-02 8.435722E+01  9.980175E-01 -6.173993E+00 
1.206562500E+02  9.999598E-01 1.677933E+02  2.392623E-05 1.705668E+02  2.382334E-05 1.705768E+02 
 2.392623E-05 1.705668E+02  9.980028E-01 -6.369993E+00  5.614214E-02 8.405641E+01 
 2.382334E-05 1.705768E+02  5.614214E-02 8.405641E+01  9.980071E-01 -6.370131E+00 
1.243750000E+02  9.999607E-01 1.674147E+02  2.722792E-05 1.724756E+02  2.714165E-05 1.724800E+02 
 2.722792E-05 1.724756E+02  9.978842E-01 -6.576827E+00  5.772484E-02 8.386630E+01 
 2.714165E-05 1.724800E+02  5.772484E-02 8.386630E+01  9.978880E-01 -6.576914E+00 
1.280937500E+02  9.999645E-01 1.670349E+02  2.928922E-05 1.734840E+02  2.916197E-05 1.734833E+02 
 2.928922E-05 1.734840E+02  9.978934E-01 -6.772013E+00  5.951177E-02 8.354720E+01 
 2.916197E-05 1.734833E+02  5.951177E-02 8.354720E+01  9.978985E-01 -6.772155E+00 
1.318125000E+02  9.999498E-01 1.666554E+02  3.098518E-05 1.696185E+02  3.085311E-05 1.696137E+02 
 3.098518E-05 1.696185E+02  9.977139E-01 -6.965630E+00  6.133025E-02 8.340937E+01 
 3.085311E-05 1.696137E+02  6.133025E-02 8.340937E+01  9.977181E-01 -6.965854E+00 
1.355312500E+02  9.999495E-01 1.662748E+02  3.224253E-05 1.724993E+02  3.210597E-05 1.725231E+02 
 3.224253E-05 1.724993E+02  9.975689E-01 -7.166294E+00  6.302649E-02 8.323468E+01 
 3.210597E-05 1.725231E+02  6.302649E-02 8.323468E+01  9.975719E-01 -7.166913E+00 
1.392500000E+02  9.999605E-01 1.658953E+02  3.638779E-05 1.724481E+02  3.623023E-05 1.723743E+02 
 3.638779E-05 1.724481E+02  9.973091E-01 -7.366058E+00  6.474500E-02 8.315664E+01 
 3.623023E-05 1.723743E+02  6.474500E-02 8.315664E+01  9.973124E-01 -7.366820E+00 
1.429687500E+02  9.999480E-01 1.655142E+02  3.728299E-05 1.716076E+02  3.706595E-05 1.716568E+02 
 3.728299E-05 1.716076E+02  9.973328E-01 -7.556784E+00  6.662643E-02 8.282509E+01 
 3.706595E-05 1.716568E+02  6.662643E-02 8.282509E+01  9.973345E-01 -7.557192E+00 
1.466875000E+02  9.999289E-01 1.651345E+02  3.778854E-05 1.718834E+02  3.757801E-05 1.719103E+02 
 3.778854E-05 1.718834E+02  9.971237E-01 -7.757226E+00  6.834265E-02 8.269446E+01 
 3.757801E-05 1.719103E+02  6.834265E-02 8.269446E+01  9.971223E-01 -7.757461E+00 
1.504062500E+02  9.999451E-01 1.647531E+02  3.963767E-05 1.721972E+02  3.942850E-05 1.722017E+02 
 3.963767E-05 1.721972E+02  9.970754E-01 -7.962251E+00  6.997498E-02 8.242603E+01 
 3.942850E-05 1.722017E+02  6.997498E-02 8.242603E+01  9.970726E-01 -7.963093E+00 
1.541250000E+02  9.999523E-01 1.643707E+02  4.168978E-05 1.685003E+02  4.146335E-05 1.684493E+02 
 4.168978E-05 1.685003E+02  9.969302E-01 -8.163147E+00  7.169039E-02 8.223375E+01 
 4.146335E-05 1.684493E+02  7.169039E-02 8.223375E+01  9.969295E-01 -8.163823E+00 
1.578437500E+02  9.999185E-01 1.639894E+02  4.144761E-05 1.688312E+02  4.115510E-05 1.688795E+02 
 4.144761E-05 1.688312E+02  9.968159E-01 -8.360672E+00  7.346328E-02 8.201488E+01 
 4.115510E-05 1.688795E+02  7.346328E-02 8.201488E+01  9.968153E-01 -8.361753E+00 
1.615625000E+02  9.999093E-01 1.636093E+02  4.581798E-05 1.705556E+02  4.556461E-05 1.705630E+02 
 4.581798E-05 1.705556E+02  9.965420E-01 -8.553003E+00  7.533944E-02 8.191340E+01 
 4.556461E-05 1.705630E+02  7.533944E-02 8.191340E+01  9.965463E-01 -8.553592E+00 
1.652812500E+02  9.999112E-01 1.632260E+02  4.757711E-05 1.721499E+02  4.728039E-05 1.721625E+02 
 4.757711E-05 1.721499E+02  9.963454E-01 -8.756153E+00  7.702487E-02 8.175145E+01 
 4.728039E-05 1.721625E+02  7.702487E-02 8.175145E+01  9.963468E-01 -8.756972E+00 
1.690000000E+02  9.999333E-01 1.628440E+02  5.102438E-05 1.707430E+02  5.064138E-05 1.707754E+02 
 5.102438E-05 1.707430E+02  9.963193E-01 -8.945220E+00  7.896048E-02 8.145786E+01 
 5.064138E-05 1.707754E+02  7.896048E-02 8.145786E+01  9.963238E-01 -8.945979E+00 
1.727187500E+02  9.999120E-01 1.624603E+02  5.182066E-05 1.669465E+02  5.141205E-05 1.669794E+02 
 5.182066E-05 1.669465E+02  9.962896E-01 -9.140292E+00  8.079263E-02 8.116898E+01 
 5.141205E-05 1.669794E+02  8.079263E-02 8.116898E+01  9.962980E-01 -9.141420E+00 
1.764375000E+02  9.999219E-01 1.620768E+02  5.459670E-05 1.689103E+02  5.425481E-05 1.688992E+02 
 5.459670E-05 1.689103E+02  9.959187E-01 -9.337634E+00  8.259241E-02 8.111894E+01 
 5.425481E-05 1.688992E+02  8.259241E-02 8.111894E+01  9.959293E-01 -9.339066E+00 
1.801562500E+02  9.999333E-01 1.616936E+02  5.822087E-05 1.691663E+02  5.778993E-05 1.692249E+02 
 5.822087E-05 1.691663E+02  9.959005E-01 -9.541258E+00  8.429276E-02 8.082077E+01 
 5.778993E-05 1.692249E+02  8.429276E-02 8.082077E+01  9.959143E-01 -9.542130E+00 
1.838750000E+02  9.999111E-01 1.613109E+02  5.974174E-05 1.679009E+02  5.911358E-05 1.679598E+02 
 5.974174E-05 1.679009E+02  9.956176E-01 -9.752938E+00  8.585173E-02 8.070425E+01 
 5.911358E-05 1.679598E+02  8.585173E-02 8.070425E+01  9.956255E-01 -9.754205E+00 
1.875937500E+02  9.999193E-01 1.609269E+02  6.487476E-05 1.664884E+02  6.431097E-05 1.664338E+02 
 6.487476E-05 1.664884E+02  9.955938E-01 -9.948500E+00  8.769743E-02 8.040862E+01 
 6.431097E-05 1.664338E+02  8.769743E-02 8.040862E+01  9.956049E-01 -9.949684E+00 
1.913125000E+02  9.999162E-01 1.605422E+02  6.803160E-05 1.676055E+02  6.748051E-05 1.675849E+02 
 6.803160E-05 1.676055E+02  9.954120E-01 -1.013679E+01  8.967556E-02 8.021631E+01 
 6.748051E-05 1.675849E+02  8.967556E-02 8.021631E+01  9.954222E-01 -1.013788E+01 
1.950312500E+02  9.998950E-01 1.601566E+02  6.876443E-05 1.671083E+02  6.808194E-05 1.670719E+02 
 6.876443E-05 1.671083E+02  9.952575E-01 -1.033698E+01  9.144944E-02 8.000370E+01 
 6.808194E-05 1.670719E+02  9.144944E-02 8.000370E+01  9.952716E-01 -1.033827E+01 
1.987500000E+02  9.999032E-01 1.597699E+02  8.410413E-05 1.646175E+02  8.333561E-05 1.645977E+02 
 8.410413E-05 1.646175E+02  9.950394E-01 -1.054771E+01  9.305181E-02 7.983130E+01 
 8.333561E-05 1.645977E+02  9.305181E-02 7.983130E+01  9.950502E-01 -1.054850E+01 
2.024687500E+02  9.998952E-01 1.593841E+02  7.488987E-05 1.668058E+02  7.411524E-05 1.668943E+02 
 7.488987E-05 1.668058E+02  9.947593E-01 -1.074660E+01  9.485622E-02 7.969272E+01 
 7.411524E-05 1.668943E+02  9.485622E-02 7.969272E+01  9.947647E-01 -1.074796E+01 
2.061875000E+02  9.998656E-01 1.590006E+02  6.514192E-05 1.646329E+02  6.435892E-05 1.647059E+02 
 6.514192E-05 1.646329E+02  9.944539E-01 -1.093954E+01  9.677750E-02 7.956063E+01 
 6.435892E-05 1.647059E+02  9.677750E-02 7.956063E+01  9.944654E-01 -1.094054E+01 
2.099062500E+02  9.998921E-01 1.586162E+02  8.882088E-05 1.511970E+02  8.789507E-05 1.510469E+02 
 8.882088E-05 1.511970E+02  9.945227E-01 -1.112846E+01  9.876050E-02 7.921005E+01 
 8.789507E-05 1.510469E+02  9.876050E-02 7.921005E+01  9.945290E-01 -1.113029E+01 
2.136250000E+02  9.998706E-01 1.582272E+02  8.416850E-05 1.633995E+02  8.314158E-05 1.634537E+02 
 8.416850E-05 1.633995E+02  9.943573E-01 -1.132542E+01  1.006262E-01 7.899448E+01 
 8.314158E-05 1.634537E+02  1.006262E-01 7.899448E+01  9.943648E-01 -1.132637E+01 
2.173437500E+02  9.998934E-01 1.578404E+02  7.481011E-05 1.660192E+02  7.382631E-05 1.660487E+02 
 7.481011E-05 1.660192E+02  9.941463E-01 -1.153025E+01  1.023458E-01 7.880490E+01 
 7.382631E-05 1.660487E+02  1.023458E-01 7.880490E+01  9.941492E-01 -1.153214E+01 
2.210625000E+02  9.998665E-01 1.574533E+02  8.572794E-05 1.616411E+02  8.475432E-05 1.615917E+02 
 8.572794E-05 1.616411E+02  9.939608E-01 -1.172719E+01  1.042222E-01 7.859341E+01 
 8.475432E-05 1.615917E+02  1.042222E-01 7.859341E+01  9.939773E-01 -1.172830E+01 
2.247812500E+02  9.998787E-01 1.570637E+02  8.213130E-05 1.635892E+02  8.105740E-05 1.637551E+02 
 8.213130E-05 1.635892E+02  9.938322E-01 -1.192521E+01  1.060784E-01 7.835391E+01 
 8.105740E-05 1.637551E+02  1.060784E-01 7.835391E+01  9.938458E-01 -1.192636E+01 
2.285000000E+02  9.998468E-01 1.566745E+02  8.896336E-05 1.651679E+02  8.774515E-05 1.652429E+02 
 8.896336E-05 1.651679E+02  9.934924E-01 -1.212733E+01  1.078700E-01 7.822538E+01 
 8.774515E-05 1.652429E+02  1.078700E-01 7.822538E+01  9.935047E-01 -1.212862E+01 
2.322187500E+02  9.998390E-01 1.562759E+02  9.008358E-05 1.640570E+02  8.880178E-05 1.641618E+02 
 9.008358E-05 1.640570E+02  9.931711E-01 -1.236092E+01  1.091229E-01 7.808454E+01 
 8.880178E-05 1.641618E+02  1.091229E-01 7.808454E+01  9.931831E-01 -1.236236E+01 
2.359375000E+02  9.998593E-01 1.558959E+02  9.419587E-05 1.654396E+02  9.279334E-05 1.655347E+02 
 9.419587E-05 1.654396E+02  9.931726E-01 -1.251617E+01  1.117388E-01 7.776998E+01 
 9.279334E-05 1.655347E+02  1.117388E-01 7.776998E+01  9.931819E-01 -1.251736E+01 
2.396562500E+02  9.998736E-01 1.555062E+02  9.845918E-05 1.651983E+02  9.703831E-05 1.652884E+02 
 9.845918E-05 1.651983E+02  9.929756E-01 -1.271922E+01  1.135297E-01 7.755792E+01 
 9.703831E-05 1.652884E+02  1.135297E-01 7.755792E+01  9.929896E-01 -1.272083E+01 
2.433750000E+02  9.998857E-01 1.551163E+02  1.016661E-04 1.623504E+02  1.000375E-04 1.624195E+02 
 1.016661E-04 1.623504E+02  9.928653E-01 -1.292068E+01  1.153599E-01 7.730620E+01 
 1.000375E-04 1.624195E+02  1.153599E-01 7.730620E+01  9.928637E-01 -1.292202E+01 
2.470937500E+02  9.998938E-01 1.547249E+02  1.090191E-04 1.646367E+02  1.075042E-04 1.647476E+02 
 1.090191E-04 1.646367E+02  9.926817E-01 -1.312669E+01  1.171108E-01 7.708379E+01 
 1.075042E-04 1.647476E+02  1.171108E-01 7.708379E+01  9.926894E-01 -1.312861E+01 
2.508125000E+02  9.998342E-01 1.543344E+02  1.102718E-04 1.631309E+02  1.086391E-04 1.631642E+02 
 1.102718E-04 1.631309E+02  9.923483E-01 -1.333037E+01  1.189122E-01 7.693370E+01 
 1.086391E-04 1.631642E+02  1.189122E-01 7.693370E+01  9.923576E-01 -1.333253E+01 
2.545312500E+02  9.998597E-01 1.539424E+02  1.111098E-04 1.634320E+02  1.094879E-04 1.635630E+02 
 1.111098E-04 1.634320E+02  9.919662E-01 -1.352316E+01  1.209088E-01 7.680222E+01 
 1.094879E-04 1.635630E+02  1.209088E-01 7.680222E+01  9.919790E-01 -1.352554E+01 
2.582500000E+02  9.998667E-01 1.535503E+02  1.141627E-04 1.635802E+02  1.121644E-04 1.637153E+02 
 1.141627E-04 1.635802E+02  9.919079E-01 -1.372003E+01  1.228476E-01 7.652029E+01 
 1.121644E-04 1.637153E+02  1.228476E-01 7.652029E+01  9.919061E-01 -1.372181E+01 
2.619687500E+02  9.998773E-01 1.531561E+02  1.167758E-04 1.610470E+02  1.148416E-04 1.611558E+02 
 1.167758E-04 1.610470E+02  9.916536E-01 -1.392825E+01  1.245861E-01 7.632288E+01 
 1.148416E-04 1.611558E+02  1.245861E-01 7.632288E+01  9.916631E-01 -1.393082E+01 
2.656875000E+02  9.998451E-01 1.527625E+02  1.237965E-04 1.617253E+02  1.214358E-04 1.617760E+02 
 1.237965E-04 1.617253E+02  9.915153E-01 -1.412458E+01  1.265461E-01 7.607553E+01 
 1.214358E-04 1.617760E+02  1.265461E-01 7.607553E+01  9.915141E-01 -1.412679E+01 
2.694062500E+02  9.998721E-01 1.523666E+02  1.266712E-04 1.616939E+02  1.244978E-04 1.617933E+02 
 1.266712E-04 1.616939E+02  9.912647E-01 -1.433079E+01  1.283312E-01 7.587500E+01 
 1.244978E-04 1.617933E+02  1.283312E-01 7.587500E+01  9.912655E-01 -1.433407E+01 
2.731250000E+02  9.998357E-01 1.519744E+02  1.317217E-04 1.617359E+02  1.292164E-04 1.618740E+02 
 1.317217E-04 1.617359E+02  9.909719E-01 -1.453870E+01  1.300997E-01 7.569436E+01 
 1.292164E-04 1.618740E+02  1.300997E-01 7.569436E+01  9.909590E-01 -1.454243E+01 
2.768437500E+02  9.999018E-01 1.515786E+02  1.311057E-04 1.610907E+02  1.285910E-04 1.612286E+02 
 1.311057E-04 1.610907E+02  9.905859E-01 -1.473861E+01  1.320223E-01 7.554328E+01 
 1.285910E-04 1.612286E+02  1.320223E-01 7.554328E+01  9.905962E-01 -1.474181E+01 
2.805625000E+02  9.998425E-01 1.511834E+02  1.367225E-04 1.616587E+02  1.340366E-04 1.617905E+02 
 1.367225E-04 1.616587E+02  9.903776E-01 -1.493028E+01  1.340892E-01 7.531359E+01 
 1.340366E-04 1.617905E+02  1.340892E-01 7.531359E+01  9.904074E-01 -1.493348E+01 
2.842812500E+02  9.998647E-01 1.507862E+02  1.398327E-04 1.613809E+02  1.367761E-04 1.614734E+02 
 1.398327E-04 1.613809E+02  9.901646E-01 -1.513472E+01  1.359385E-01 7.509104E+01 
 1.367761E-04 1.614734E+02  1.359385E-01 7.509104E+01  9.901844E-01 -1.513848E+01 
2.880000000E+02  9.998723E-01 1.503909E+02  1.450681E-04 1.599552E+02  1.422728E-04 1.600678E+02 
 1.450681E-04 1.599552E+02  9.901069E-01 -1.533684E+01  1.378260E-01 7.480440E+01 
 1.422728E-04 1.600678E+02  1.378260E-01 7.480440E+01  9.901101E-01 -1.534230E+01 
2.917187500E+02  9.998827E-01 1.499902E+02  1.566817E-04 1.593362E+02  1.534123E-04 1.594165E+02 
 1.566817E-04 1.593362E+02  9.896934E-01 -1.554306E+01  1.396680E-01 7.465620E+01 
 1.534123E-04 1.594165E+02  1.396680E-01 7.465620E+01  9.897150E-01 -1.554825E+01 
2.954375000E+02  9.997427E-01 1.495864E+02  1.573264E-04 1.598979E+02  1.538562E-04 1.599879E+02 
 1.573264E-04 1.598979E+02  9.894486E-01 -1.575346E+01  1.414401E-01 7.444640E+01 
 1.538562E-04 1.599879E+02  1.414401E-01 7.444640E+01  9.894396E-01 -1.575908E+01 
2.991562500E+02  9.998184E-01 1.491961E+02  1.532746E-04 1.578973E+02  1.494484E-04 1.579568E+02 
 1.532746E-04 1.578973E+02  9.888828E-01 -1.594962E+01  1.434723E-01 7.435202E+01 
 1.494484E-04 1.579568E+02  1.434723E-01 7.435202E+01  9.888950E-01 -1.595496E+01 
3.028750000E+02  9.998059E-01 1.487977E+02  1.635088E-04 1.546467E+02  1.594209E-04 1.547314E+02 
 1.635088E-04 1.546467E+02  9.885685E-01 -1.615210E+01  1.453931E-01 7.415798E+01 
 1.594209E-04 1.547314E+02  1.453931E-01 7.415798E+01  9.885836E-01 -1.615832E+01 
3.065937500E+02  9.998254E-01 1.483983E+02  1.565369E-04 1.582048E+02  1.524633E-04 1.582528E+02 
 1.565369E-04 1.582048E+02  9.884722E-01 -1.635617E+01  1.472908E-01 7.388128E+01 
 1.524633E-04 1.582528E+02  1.472908E-01 7.388128E+01  9.884674E-01 -1.636373E+01 
3.103125000E+02  9.998217E-01 1.479955E+02  1.613027E-04 1.588160E+02  1.570078E-04 1.590452E+02 
 1.613027E-04 1.588160E+02  9.882147E-01 -1.656146E+01  1.492027E-01 7.366044E+01 
 1.570078E-04 1.590452E+02  1.492027E-01 7.366044E+01  9.882208E-01 -1.656732E+01 
3.140312500E+02  9.997418E-01 1.475905E+02  1.637545E-04 1.569046E+02  1.593165E-04 1.569611E+02 
 1.637545E-04 1.569046E+02  9.878875E-01 -1.676131E+01  1.511761E-01 7.346668E+01 
 1.593165E-04 1.569611E+02  1.511761E-01 7.346668E+01  9.878937E-01 -1.677013E+01 
3.177500000E+02  9.997681E-01 1.471902E+02  1.718336E-04 1.586666E+02  1.672817E-04 1.589249E+02 
 1.718336E-04 1.586666E+02  9.877585E-01 -1.697538E+01  1.529389E-01 7.319357E+01 
 1.672817E-04 1.589249E+02  1.529389E-01 7.319357E+01  9.877798E-01 -1.698425E+01 
3.214687500E+02  9.997946E-01 1.467908E+02  1.770253E-04 1.582327E+02  1.718958E-04 1.583747E+02 
 1.770253E-04 1.582327E+02  9.869639E-01 -1.717247E+01  1.550060E-01 7.317037E+01 
 1.718958E-04 1.583747E+02  1.550060E-01 7.317037E+01  9.869696E-01 -1.718105E+01 
3.251875000E+02  9.997501E-01 1.463861E+02  1.785689E-04 1.568412E+02  1.733172E-04 1.569576E+02 
 1.785689E-04 1.568412E+02  9.868798E-01 -1.737223E+01  1.570244E-01 7.288255E+01 
 1.733172E-04 1.569576E+02  1.570244E-01 7.288255E+01  9.868757E-01 -1.738168E+01 
3.289062500E+02  9.997667E-01 1.459855E+02  1.829153E-04 1.577871E+02  1.774603E-04 1.580251E+02 
 1.829153E-04 1.577871E+02  9.865953E-01 -1.758221E+01  1.588742E-01 7.265777E+01 
 1.774603E-04 1.580251E+02  1.588742E-01 7.265777E+01  9.866277E-01 -1.759273E+01 
3.326250000E+02  9.996903E-01 1.455780E+02  1.885049E-04 1.588882E+02  1.828398E-04 1.592429E+02 
 1.885049E-04 1.588882E+02  9.863641E-01 -1.779108E+01  1.607536E-01 7.242100E+01 
 1.828398E-04 1.592429E+02  1.607536E-01 7.242100E+01  9.863884E-01 -1.780274E+01 
3.363437500E+02  9.997087E-01 1.451731E+02  1.918281E-04 1.584428E+02  1.861078E-04 1.587267E+02 
 1.918281E-04 1.584428E+02  9.859721E-01 -1.799694E+01  1.626874E-01 7.223713E+01 
 1.861078E-04 1.587267E+02  1.626874E-01 7.223713E+01  9.860017E-01 -1.801037E+01 
3.400625000E+02  9.996392E-01 1.447653E+02  1.978355E-04 1.571091E+02  1.920557E-04 1.575375E+02 
 1.978355E-04 1.571091E+02  9.856286E-01 -1.821565E+01  1.644331E-01 7.203940E+01 
 1.920557E-04 1.575375E+02  1.644331E-01 7.203940E+01  9.856317E-01 -1.822832E+01 
3.437812500E+02  9.996533E-01 1.443646E+02  2.046880E-04 1.590105E+02  1.991347E-04 1.591081E+02 
 2.046880E-04 1.590105E+02  9.849519E-01 -1.841915E+01  1.664267E-01 7.194752E+01 
 1.991347E-04 1.591081E+02  1.664267E-01 7.194752E+01  9.849610E-01 -1.843373E+01 
3.475000000E+02  9.996724E-01 1.439522E+02  2.142272E-04 1.559270E+02  2.080287E-04 1.561171E+02 
 2.142272E-04 1.559270E+02  9.848450E-01 -1.861068E+01  1.686228E-01 7.165918E+01 
 2.080287E-04 1.561171E+02  1.686228E-01 7.165918E+01  9.848610E-01 -1.862840E+01 
3.512187500E+02  9.996511E-01 1.435467E+02  2.154282E-04 1.557260E+02  2.086013E-04 1.558717E+02 
 2.154282E-04 1.557260E+02  9.843633E-01 -1.881877E+01  1.705924E-01 7.149277E+01 
 2.086013E-04 1.558717E+02  1.705924E-01 7.149277E+01  9.843996E-01 -1.883421E+01 
3.549375000E+02  9.996392E-01 1.431364E+02  2.222655E-04 1.555394E+02  2.154774E-04 1.557904E+02 
 2.222655E-04 1.555394E+02  9.842182E-01 -1.903100E+01  1.724621E-01 7.122085E+01 
 2.154774E-04 1.557904E+02  1.724621E-01 7.122085E+01  9.842273E-01 -1.904877E+01 
3.586562500E+02  9.996625E-01 1.427265E+02  2.092727E-04 1.535110E+02  2.014538E-04 1.538668E+02 
 2.092727E-04 1.535110E+02  9.838707E-01 -1.923935E+01  1.744297E-01 7.100924E+01 
 2.014538E-04 1.538668E+02  1.744297E-01 7.100924E+01  9.838847E-01 -1.925703E+01 
3.623750000E+02  9.996054E-01 1.423166E+02  2.283713E-04 1.530671E+02  2.202282E-04 1.534107E+02 
 2.283713E-04 1.530671E+02  9.835806E-01 -1.945873E+01  1.762098E-01 7.077590E+01 
 2.202282E-04 1.534107E+02  1.762098E-01 7.077590E+01  9.836073E-01 -1.947738E+01 
3.660937500E+02  9.996374E-01 1.419076E+02  2.225380E-04 1.563395E+02  2.146171E-04 1.568647E+02 
 2.225380E-04 1.563395E+02  9.829874E-01 -1.967036E+01  1.781474E-01 7.064468E+01 
 2.146171E-04 1.568647E+02  1.781474E-01 7.064468E+01  9.829784E-01 -1.968833E+01 
3.698125000E+02  9.996264E-01 1.414942E+02  2.231147E-04 1.550833E+02  2.147793E-04 1.553791E+02 
 2.231147E-04 1.550833E+02  9.826982E-01 -1.987163E+01  1.802483E-01 7.040941E+01 
 2.147793E-04 1.553791E+02  1.802483E-01 7.040941E+01  9.826910E-01 -1.989156E+01 
3.735312500E+02  9.995557E-01 1.410806E+02  2.256402E-04 1.535500E+02  2.164950E-04 1.538735E+02 
 2.256402E-04 1.535500E+02  9.825133E-01 -2.007488E+01  1.823386E-01 7.013761E+01 
 2.164950E-04 1.538735E+02  1.823386E-01 7.013761E+01  9.825209E-01 -2.009515E+01 
3.772500000E+02  9.995785E-01 1.406634E+02  2.337460E-04 1.555722E+02  2.245086E-04 1.560086E+02 
 2.337460E-04 1.555722E+02  9.821699E-01 -2.029480E+01  1.841690E-01 6.991815E+01 
 2.245086E-04 1.560086E+02  1.841690E-01 6.991815E+01  9.821666E-01 -2.031401E+01 
3.809687500E+02  9.994769E-01 1.402515E+02  2.452603E-04 1.536027E+02  2.352763E-04 1.540010E+02 
 2.452603E-04 1.536027E+02  9.816337E-01 -2.051036E+01  1.860520E-01 6.974580E+01 
 2.352763E-04 1.540010E+02  1.860520E-01 6.974580E+01  9.816844E-01 -2.053254E+01 
3.846875000E+02  9.994262E-01 1.398313E+02  2.508140E-04 1.543906E+02  2.405502E-04 1.546334E+02 
 2.508140E-04 1.543906E+02  9.813705E-01 -2.072808E+01  1.879436E-01 6.950459E+01 
 2.405502E-04 1.546334E+02  1.879436E-01 6.950459E+01  9.813684E-01 -2.074914E+01 
3.884062500E+02  9.994269E-01 1.394305E+02  2.544890E-04 1.536625E+02  2.434826E-04 1.539574E+02 
 2.544890E-04 1.536625E+02  9.808129E-01 -2.095199E+01  1.897165E-01 6.934144E+01 
 2.434826E-04 1.539574E+02  1.897165E-01 6.934144E+01  9.808115E-01 -2.097493E+01 
3.921250000E+02  9.994603E-01 1.390077E+02  2.551589E-04 1.548407E+02  2.443890E-04 1.553171E+02 
 2.551589E-04 1.548407E+02  9.802565E-01 -2.114792E+01  1.919862E-01 6.917275E+01 
 2.443890E-04 1.553171E+02  1.919862E-01 6.917275E+01  9.802746E-01 -2.117108E+01 
3.958437500E+02  9.994261E-01 1.385870E+02  2.619391E-04 1.537097E+02  2.505114E-04 1.541924E+02 
 2.619391E-04 1.537097E+02  9.800850E-01 -2.134999E+01  1.941789E-01 6.889495E+01 
 2.505114E-04 1.541924E+02  1.941789E-01 6.889495E+01  9.800805E-01 -2.137175E+01 
3.995625000E+02  9.993866E-01 1.381678E+02  2.679296E-04 1.531657E+02  2.571451E-04 1.536254E+02 
 2.679296E-04 1.531657E+02  9.797043E-01 -2.157384E+01  1.960007E-01 6.867213E+01 
 2.571451E-04 1.536254E+02  1.960007E-01 6.867213E+01  9.797113E-01 -2.159588E+01 
4.032812500E+02  9.994380E-01 1.377423E+02  2.786840E-04 1.526366E+02  2.656082E-04 1.530650E+02 
 2.786840E-04 1.526366E+02  9.792599E-01 -2.178857E+01  1.979934E-01 6.846264E+01 
 2.656082E-04 1.530650E+02  1.979934E-01 6.846264E+01  9.792998E-01 -2.181029E+01 
4.070000000E+02  9.993902E-01 1.373205E+02  2.788307E-04 1.520801E+02  2.661095E-04 1.525924E+02 
 2.788307E-04 1.520801E+02  9.788794E-01 -2.200479E+01  1.999551E-01 6.823598E+01 
 2.661095E-04 1.525924E+02  1.999551E-01 6.823598E+01  9.789319E-01 -2.202842E+01 
4.107187500E+02  9.994213E-01 1.369171E+02  2.955894E-04 1.517776E+02  2.823507E-04 1.521445E+02 
 2.955894E-04 1.517776E+02  9.783580E-01 -2.222687E+01  2.018370E-01 6.805433E+01 
 2.823507E-04 1.521445E+02  2.018370E-01 6.805433E+01  9.783694E-01 -2.225146E+01 
4.144375000E+02  9.994113E-01 1.364869E+02  2.846152E-04 1.507960E+02  2.716212E-04 1.513865E+02 
 2.846152E-04 1.507960E+02  9.777673E-01 -2.242540E+01  2.041294E-01 6.787853E+01 
 2.716212E-04 1.513865E+02  2.041294E-01 6.787853E+01  9.778176E-01 -2.245041E+01 
4.181562500E+02  9.993156E-01 1.360707E+02  2.859647E-04 1.486701E+02  2.716457E-04 1.493388E+02 
 2.859647E-04 1.486701E+02  9.773636E-01 -2.263963E+01  2.062015E-01 6.765371E+01 
 2.716457E-04 1.493388E+02  2.062015E-01 6.765371E+01  9.774102E-01 -2.266176E+01 
4.218750000E+02  9.991938E-01 1.356427E+02  2.899844E-04 1.494490E+02  2.759608E-04 1.500829E+02 
 2.899844E-04 1.494490E+02  9.770015E-01 -2.286373E+01  2.080551E-01 6.741798E+01 
 2.759608E-04 1.500829E+02  2.080551E-01 6.741798E+01  9.770354E-01 -2.289054E+01 
4.255937500E+02  9.991610E-01 1.352216E+02  2.911292E-04 1.516176E+02  2.767074E-04 1.522968E+02 
 2.911292E-04 1.516176E+02  9.765602E-01 -2.308102E+01  2.100643E-01 6.719660E+01 
 2.767074E-04 1.522968E+02  2.100643E-01 6.719660E+01  9.766189E-01 -2.310915E+01 
4.293125000E+02  9.992367E-01 1.347936E+02  2.986865E-04 1.528030E+02  2.836395E-04 1.535702E+02 
 2.986865E-04 1.528030E+02  9.761897E-01 -2.329929E+01  2.121345E-01 6.696207E+01 
 2.836395E-04 1.535702E+02  2.121345E-01 6.696207E+01  9.762187E-01 -2.332118E+01 
4.330312500E+02  9.989749E-01 1.343780E+02  3.119334E-04 1.529568E+02  2.967592E-04 1.536566E+02 
 3.119334E-04 1.529568E+02  9.755414E-01 -2.352696E+01  2.140080E-01 6.680177E+01 
 2.967592E-04 1.536566E+02  2.140080E-01 6.680177E+01  9.755157E-01 -2.354860E+01 
4.367500000E+02  9.991348E-01 1.339505E+02  3.256636E-04 1.516430E+02  3.090431E-04 1.520139E+02 
 3.256636E-04 1.516430E+02  9.747647E-01 -2.373678E+01  2.161914E-01 6.665965E+01 
 3.090431E-04 1.520139E+02  2.161914E-01 6.665965E+01  9.747734E-01 -2.375800E+01 
4.404687500E+02  9.992405E-01 1.335014E+02  3.241065E-04 1.504991E+02  3.081597E-04 1.505808E+02 
 3.241065E-04 1.504991E+02  9.745348E-01 -2.395505E+01  2.182490E-01 6.636849E+01 
 3.081597E-04 1.505808E+02  2.182490E-01 6.636849E+01  9.746268E-01 -2.397693E+01 
4.441875000E+02  9.990956E-01 1.330758E+02  3.307910E-04 1.469331E+02  3.130693E-04 1.473509E+02 
 3.307910E-04 1.469331E+02  9.741128E-01 -2.417647E+01  2.202737E-01 6.613495E+01 
 3.130693E-04 1.473509E+02  2.202737E-01 6.613495E+01  9.742181E-01 -2.419710E+01 
4.479062500E+02  9.991908E-01 1.326466E+02  3.412764E-04 1.489135E+02  3.197905E-04 1.495323E+02 
 3.412764E-04 1.489135E+02  9.736938E-01 -2.439913E+01  2.222974E-01 6.589813E+01 
 3.197905E-04 1.495323E+02  2.222974E-01 6.589813E+01  9.738132E-01 -2.441794E+01 
4.516250000E+02  9.991601E-01 1.322082E+02  3.363503E-04 1.488380E+02  3.159977E-04 1.488786E+02 
 3.363503E-04 1.488380E+02  9.734062E-01 -2.461921E+01  2.243468E-01 6.562829E+01 
 3.159977E-04 1.488786E+02  2.243468E-01 6.562829E+01  9.735269E-01 -2.464084E+01 
4.553437500E+02  9.989084E-01 1.317867E+02  3.373726E-04 1.450217E+02  3.161908E-04 1.455545E+02 
 3.373726E-04 1.450217E+02  9.727000E-01 -2.484108E+01  2.264024E-01 6.546661E+01 
 3.161908E-04 1.455545E+02  2.264024E-01 6.546661E+01  9.727812E-01 -2.486230E+01 
4.590625000E+02  9.991118E-01 1.313598E+02  3.499574E-04 1.473729E+02  3.275307E-04 1.482345E+02 
 3.499574E-04 1.473729E+02  9.720500E-01 -2.506119E+01  2.284896E-01 6.527502E+01 
 3.275307E-04 1.482345E+02  2.284896E-01 6.527502E+01  9.721876E-01 -2.508273E+01 
4.627812500E+02  9.991436E-01 1.309152E+02  3.408260E-04 1.478870E+02  3.193472E-04 1.486651E+02 
 3.408260E-04 1.478870E+02  9.716292E-01 -2.527240E+01  2.307626E-01 6.503126E+01 