! Matrix data file written by TouchstoneData, EPCOS AG
! FILENAME: "ansys_B4328_WB.s3p"
! COMMENT: "(B4328_WB.s3p) Epcos AG 7/1/2013 1:54:38 PM"
! INFO: nport=3, nfreq=1601
! DATE: "Mon Jul  8 13:10:58 2013"
! USER: "Daniel Harbusch"
!
! port | pin | signal
! -----|-----|--------
!   1  |  1  |  Input
!   2  |  3  |  Output balanced
!   3  |  4  |  Output balanced
! --------------------
! 
# MHZ S MA R 50
! freq  magS11 angS11  magS12 angS12  magS13 angS13  ...
5.000000000E+01  9.980083E-01 -3.397222E+00  1.109174E-04 7.749237E+01  2.732080E-04 6.838293E+01 
 1.242086E-04 9.781944E+01  9.995113E-01 -2.038912E+00  2.485719E-04 1.159328E+02 
 1.828471E-04 6.162649E+01  1.853893E-04 1.067872E+02  9.982608E-01 -1.980283E+00 
5.371875000E+01  9.975915E-01 -3.618303E+00  1.873837E-04 9.038516E+01  2.215324E-04 8.767751E+01 
 1.643674E-04 8.576481E+01  9.990956E-01 -2.134482E+00  1.832190E-04 1.103001E+02 
 2.176596E-04 8.593515E+01  1.989930E-04 1.124463E+02  9.985220E-01 -2.124000E+00 
5.743750000E+01  9.976545E-01 -3.894022E+00  1.356868E-04 8.702834E+01  2.042679E-04 8.493687E+01 
 1.306216E-04 8.609317E+01  9.997015E-01 -2.296315E+00  3.599649E-04 9.388459E+01 
 1.880032E-04 9.455081E+01  3.576516E-04 9.321740E+01  9.987082E-01 -2.259408E+00 
6.115625000E+01  9.979467E-01 -4.104149E+00  1.949750E-04 5.799419E+01  2.266496E-04 6.637037E+01 
 1.782908E-04 6.363999E+01  9.986795E-01 -2.451478E+00  3.901557E-04 1.063838E+02 
 2.214978E-04 6.316204E+01  3.959061E-04 1.070663E+02  9.979021E-01 -2.409573E+00 
6.487500000E+01  9.979015E-01 -4.364218E+00  1.645451E-04 7.733604E+01  2.184688E-04 7.507848E+01 
 1.656376E-04 7.882557E+01  9.997278E-01 -2.574807E+00  2.975655E-04 8.033768E+01 
 2.325942E-04 8.167937E+01  2.890507E-04 8.490502E+01  9.989676E-01 -2.498939E+00 
6.859375000E+01  9.946721E-01 -4.654416E+00  1.658958E-04 7.997134E+01  2.301690E-04 8.045903E+01 
 1.750956E-04 8.215212E+01  9.989209E-01 -2.752132E+00  4.891110E-04 7.313199E+01 
 2.166453E-04 8.477491E+01  5.124101E-04 7.181074E+01  9.976012E-01 -2.693688E+00 
7.231250000E+01  9.976142E-01 -4.804842E+00  1.313996E-04 7.221503E+01  2.264914E-04 8.302186E+01 
 1.243953E-04 7.783548E+01  9.984387E-01 -2.885500E+00  4.870898E-04 8.087187E+01 
 2.472625E-04 8.585357E+01  4.826307E-04 8.360875E+01  9.984162E-01 -2.837185E+00 
7.603125000E+01  9.971071E-01 -5.085296E+00  1.922097E-04 6.831123E+01  2.772608E-04 7.737667E+01 
 2.057224E-04 7.131868E+01  9.987332E-01 -3.000492E+00  1.165410E-04 7.659097E+01 
 2.756164E-04 7.891698E+01  1.300552E-04 9.134828E+01  9.985646E-01 -2.927333E+00 
7.975000000E+01  9.973114E-01 -5.332685E+00  1.888087E-04 9.298616E+01  3.013957E-04 7.821326E+01 
 2.089236E-04 9.092662E+01  9.986489E-01 -3.128707E+00  2.879700E-04 7.413493E+01 
 2.901091E-04 8.128285E+01  3.228111E-04 7.051159E+01  9.986345E-01 -3.141957E+00 
8.346875000E+01  9.980568E-01 -5.576551E+00  2.137918E-04 6.887428E+01  3.325060E-04 7.470056E+01 
 2.144705E-04 7.077623E+01  9.993440E-01 -3.275634E+00  2.923226E-04 8.288823E+01 
 3.186183E-04 7.980624E+01  2.798456E-04 8.685104E+01  9.977715E-01 -3.240050E+00 
8.718750000E+01  9.979098E-01 -5.833629E+00  2.350726E-04 7.789758E+01  3.469238E-04 8.544929E+01 
 2.314540E-04 8.042381E+01  9.995594E-01 -3.450520E+00  1.925469E-04 7.139902E+01 
 3.555712E-04 8.724451E+01  1.798182E-04 7.680879E+01  9.984147E-01 -3.382902E+00 
9.090625000E+01  9.976641E-01 -6.136848E+00  2.161943E-04 8.301466E+01  3.077256E-04 8.094281E+01 
 2.243608E-04 8.275077E+01  9.990532E-01 -3.631238E+00  4.146917E-04 7.983543E+01 
 3.069762E-04 8.606272E+01  4.139762E-04 7.874998E+01  9.984538E-01 -3.550133E+00 
9.462500000E+01  9.980707E-01 -6.298380E+00  1.964264E-04 7.220617E+01  2.896281E-04 7.743966E+01 
 2.026506E-04 7.405067E+01  9.993268E-01 -3.721922E+00  3.546679E-04 1.029726E+02 
 2.933480E-04 7.594070E+01  3.611137E-04 1.033822E+02  9.967746E-01 -3.658501E+00 
9.834375000E+01  9.976011E-01 -6.513192E+00  2.275627E-04 8.135584E+01  3.682328E-04 8.163511E+01 
 2.277764E-04 8.525478E+01  9.983405E-01 -3.861270E+00  3.982589E-04 8.725521E+01 
 3.707909E-04 8.150522E+01  4.113778E-04 8.762716E+01  9.981048E-01 -3.791395E+00 
1.020625000E+02  9.977225E-01 -6.818396E+00  2.269096E-04 7.784387E+01  3.634556E-04 8.329274E+01 
 2.436023E-04 8.875604E+01  9.986133E-01 -4.037843E+00  3.956705E-04 8.839700E+01 
 3.690979E-04 8.909789E+01  4.057913E-04 8.919300E+01  9.986656E-01 -3.957573E+00 
1.057812500E+02  9.966447E-01 -7.033675E+00  2.812127E-04 7.764139E+01  4.090819E-04 7.917892E+01 
 2.805526E-04 7.993453E+01  9.984226E-01 -4.200161E+00  3.662809E-04 9.743232E+01 
 3.999800E-04 7.787146E+01  3.769909E-04 9.734299E+01  9.973003E-01 -4.151002E+00 
1.095000000E+02  9.979362E-01 -7.258973E+00  2.619053E-04 7.832956E+01  3.900714E-04 8.722081E+01 
 2.581333E-04 8.699212E+01  9.988698E-01 -4.317281E+00  4.447857E-04 9.100437E+01 
 3.772939E-04 8.584729E+01  4.256522E-04 9.698791E+01  9.980829E-01 -4.301678E+00 
1.132187500E+02  9.969106E-01 -7.547697E+00  2.981777E-04 8.147019E+01  3.910206E-04 8.117143E+01 
 2.643726E-04 8.800909E+01  9.982818E-01 -4.510864E+00  4.796780E-04 8.241534E+01 
 3.762024E-04 8.563872E+01  4.892710E-04 8.032899E+01  9.984482E-01 -4.433012E+00 
1.169375000E+02  9.964870E-01 -7.761190E+00  2.771770E-04 7.937368E+01  4.325097E-04 8.738751E+01 
 2.800134E-04 8.452132E+01  9.981128E-01 -4.628277E+00  4.713663E-04 9.264734E+01 
 4.677130E-04 8.828407E+01  4.660074E-04 8.977879E+01  9.975068E-01 -4.532421E+00 
1.206562500E+02  9.964635E-01 -7.995111E+00  2.540633E-04 7.889408E+01  4.218501E-04 8.251449E+01 
 2.454309E-04 8.364707E+01  9.986809E-01 -4.737970E+00  4.356203E-04 8.175920E+01 
 4.120224E-04 8.078395E+01  4.242025E-04 8.157970E+01  9.975566E-01 -4.701679E+00 
1.243750000E+02  9.967540E-01 -8.204425E+00  3.101354E-04 8.064899E+01  4.496024E-04 8.311721E+01 
 3.005635E-04 8.554215E+01  9.984806E-01 -4.919092E+00  4.529032E-04 8.894079E+01 
 4.165899E-04 8.433006E+01  4.851851E-04 8.422570E+01  9.975584E-01 -4.897493E+00 
1.280937500E+02  9.972334E-01 -8.487995E+00  3.006281E-04 8.430156E+01  4.639894E-04 8.716141E+01 
 2.971403E-04 8.293174E+01  9.991586E-01 -5.065038E+00  5.432839E-04 8.868623E+01 
 4.790231E-04 8.330865E+01  5.215844E-04 9.155772E+01  9.979812E-01 -5.031970E+00 
1.318125000E+02  9.963122E-01 -8.725988E+00  2.999672E-04 7.780345E+01  4.677448E-04 8.055134E+01 
 3.271250E-04 8.109293E+01  9.986883E-01 -5.198465E+00  5.159961E-04 8.565473E+01 
 4.858638E-04 8.244641E+01  5.257154E-04 8.607186E+01  9.977617E-01 -5.149314E+00 
1.355312500E+02  9.964930E-01 -9.019515E+00  3.032815E-04 8.581506E+01  5.011840E-04 8.145064E+01 
 3.424239E-04 8.250456E+01  9.983293E-01 -5.395985E+00  5.271355E-04 8.300782E+01 
 4.538738E-04 8.536505E+01  5.179227E-04 8.529019E+01  9.977318E-01 -5.268149E+00 
1.392500000E+02  9.974009E-01 -9.217477E+00  3.455664E-04 7.869595E+01  5.115946E-04 8.782223E+01 
 3.770429E-04 7.853021E+01  9.976447E-01 -5.557870E+00  5.317370E-04 8.033322E+01 
 5.281837E-04 8.584099E+01  5.349061E-04 8.145232E+01  9.970248E-01 -5.408860E+00 
1.429687500E+02  9.967534E-01 -9.504192E+00  3.500617E-04 8.324234E+01  5.524844E-04 8.123546E+01 
 3.125443E-04 8.534058E+01  9.981781E-01 -5.635990E+00  5.388044E-04 8.387268E+01 
 5.343544E-04 8.279830E+01  5.253685E-04 8.410602E+01  9.978722E-01 -5.560581E+00 
1.466875000E+02  9.957878E-01 -9.680927E+00  3.454583E-04 8.148462E+01  5.246348E-04 8.365023E+01 
 3.283605E-04 8.504011E+01  9.975381E-01 -5.773056E+00  5.513911E-04 9.194761E+01 
 5.293502E-04 8.247688E+01  5.567300E-04 8.887320E+01  9.977961E-01 -5.731880E+00 
1.504062500E+02  9.969079E-01 -9.948007E+00  3.502081E-04 8.505424E+01  5.415748E-04 8.544715E+01 
 3.642741E-04 8.017789E+01  9.976372E-01 -6.006396E+00  6.660505E-04 8.455949E+01 
 5.161839E-04 8.278034E+01  6.298392E-04 8.237065E+01  9.981197E-01 -5.865940E+00 
1.541250000E+02  9.974437E-01 -1.024594E+01  4.127651E-04 7.748594E+01  5.594886E-04 8.088780E+01 
 3.266954E-04 7.515576E+01  9.977833E-01 -6.142490E+00  5.982324E-04 8.877770E+01 
 5.218300E-04 8.332794E+01  5.985028E-04 9.208876E+01  9.979196E-01 -6.034978E+00 
1.578437500E+02  9.958394E-01 -1.046515E+01  3.338388E-04 8.002447E+01  5.287076E-04 8.125152E+01 
 3.375849E-04 8.182973E+01  9.977444E-01 -6.320397E+00  7.279003E-04 8.088025E+01 
 5.618292E-04 7.853175E+01  7.330646E-04 7.824256E+01  9.978498E-01 -6.156647E+00 
1.615625000E+02  9.955826E-01 -1.061535E+01  3.840057E-04 8.132933E+01  5.718703E-04 8.343601E+01 
 3.973047E-04 8.121693E+01  9.975160E-01 -6.398164E+00  7.747202E-04 7.833603E+01 
 5.467532E-04 8.144285E+01  8.252631E-04 7.954857E+01  9.969034E-01 -6.312892E+00 
1.652812500E+02  9.958703E-01 -1.090803E+01  3.833542E-04 8.022249E+01  5.800612E-04 8.435771E+01 
 3.977997E-04 8.539000E+01  9.971042E-01 -6.565550E+00  6.294999E-04 8.898869E+01 
 5.683056E-04 8.366334E+01  6.167129E-04 8.789735E+01  9.969287E-01 -6.452523E+00 
1.690000000E+02  9.970362E-01 -1.111930E+01  3.767706E-04 8.549982E+01  6.085702E-04 8.335047E+01 
 4.098503E-04 7.914234E+01  9.976578E-01 -6.667209E+00  7.207708E-04 6.879837E+01 
 6.243820E-04 8.147474E+01  6.935457E-04 7.008650E+01  9.970755E-01 -6.567053E+00 
1.727187500E+02  9.962564E-01 -1.139190E+01  3.709975E-04 7.796246E+01  6.008283E-04 7.849934E+01 
 4.079969E-04 7.903527E+01  9.984754E-01 -6.830111E+00  8.687340E-04 7.633243E+01 
 6.226797E-04 7.898157E+01  8.876531E-04 7.550736E+01  9.974350E-01 -6.687913E+00 
1.764375000E+02  9.968189E-01 -1.163965E+01  4.249275E-04 7.965205E+01  5.940721E-04 7.975790E+01 
 4.367818E-04 7.870340E+01  9.976660E-01 -6.964038E+00  6.464143E-04 7.976355E+01 
 6.101223E-04 8.308758E+01  6.131012E-04 7.747618E+01  9.964135E-01 -6.791023E+00 
1.801562500E+02  9.973942E-01 -1.186418E+01  4.352523E-04 8.008897E+01  6.344167E-04 8.034047E+01 
 4.360060E-04 8.331390E+01  9.980877E-01 -7.083580E+00  5.648490E-04 4.650154E+01 
 6.525207E-04 8.045826E+01  5.474330E-04 4.351750E+01  9.965090E-01 -6.982270E+00 
1.838750000E+02  9.966707E-01 -1.205292E+01  3.982945E-04 7.957611E+01  6.847771E-04 7.998252E+01 
 4.024749E-04 7.996184E+01  9.972009E-01 -7.318999E+00  8.075990E-04 6.903395E+01 
 6.838868E-04 7.912617E+01  7.665655E-04 7.039019E+01  9.963445E-01 -7.177883E+00 
1.875937500E+02  9.970988E-01 -1.228130E+01  4.504163E-04 7.516524E+01  6.920761E-04 7.937924E+01 
 4.706971E-04 7.554781E+01  9.982214E-01 -7.422787E+00  4.434898E-04 8.837470E+01 
 6.985652E-04 8.116257E+01  4.202263E-04 9.430565E+01  9.970475E-01 -7.296172E+00 
1.913125000E+02  9.971050E-01 -1.252186E+01  4.947300E-04 7.603755E+01  6.975358E-04 7.976514E+01 
 4.731751E-04 7.953524E+01  9.979608E-01 -7.506011E+00  3.863370E-04 6.684414E+01 
 7.052507E-04 8.169779E+01  3.845369E-04 6.505252E+01  9.969284E-01 -7.394195E+00 
1.950312500E+02  9.965127E-01 -1.277727E+01  4.660346E-04 7.701999E+01  7.091296E-04 8.143231E+01 
 4.538847E-04 7.612669E+01  9.983374E-01 -7.683218E+00  7.416853E-04 8.515632E+01 
 7.180034E-04 7.993294E+01  7.716506E-04 8.778655E+01  9.969571E-01 -7.555558E+00 
1.987500000E+02  9.969076E-01 -1.305453E+01  5.734821E-04 7.433538E+01  8.327064E-04 7.788997E+01 
 5.657306E-04 7.514752E+01  9.981419E-01 -7.832005E+00  6.377195E-04 1.164637E+02 
 8.495226E-04 7.771011E+01  6.146660E-04 1.199988E+02  9.971301E-01 -7.757557E+00 
2.024687500E+02  9.967753E-01 -1.329008E+01  4.974835E-04 7.833545E+01  7.407789E-04 7.884365E+01 
 4.711331E-04 8.080172E+01  9.971072E-01 -8.003024E+00  6.825329E-04 8.991188E+01 
 7.526432E-04 7.782125E+01  6.559626E-04 9.017954E+01  9.966253E-01 -7.879327E+00 
2.061875000E+02  9.960146E-01 -1.344292E+01  3.831950E-04 7.627865E+01  6.497673E-04 7.776985E+01 
 4.140308E-04 7.717505E+01  9.967361E-01 -8.113277E+00  1.014022E-03 7.882526E+01 
 6.493480E-04 7.547634E+01  1.020880E-03 8.162317E+01  9.957362E-01 -8.025546E+00 
2.099062500E+02  9.969120E-01 -1.361676E+01  5.632047E-04 5.932906E+01  8.124311E-04 6.676584E+01 
 5.756762E-04 5.745004E+01  9.981760E-01 -8.239210E+00  9.741464E-04 1.124432E+02 
 8.622980E-04 6.676076E+01  9.640165E-04 1.118088E+02  9.976532E-01 -8.084628E+00 
2.136250000E+02  9.964310E-01 -1.391080E+01  4.896421E-04 7.562588E+01  7.862967E-04 7.571145E+01 
 5.189765E-04 7.494668E+01  9.979631E-01 -8.333415E+00  9.362917E-04 9.120647E+01 
 8.120662E-04 7.629419E+01  9.391040E-04 8.845793E+01  9.973568E-01 -8.255463E+00 
2.173437500E+02  9.971614E-01 -1.413048E+01  4.287096E-04 7.736128E+01  6.906292E-04 8.095129E+01 
 4.449980E-04 7.695142E+01  9.974399E-01 -8.549831E+00  1.228083E-03 8.007719E+01 
 7.146187E-04 7.736125E+01  1.239798E-03 8.093587E+01  9.972320E-01 -8.401279E+00 
2.210625000E+02  9.965670E-01 -1.434840E+01  5.275445E-04 7.126077E+01  7.637536E-04 7.470780E+01 
 5.089899E-04 7.183616E+01  9.980575E-01 -8.630239E+00  9.785376E-04 8.116518E+01 
 7.667410E-04 7.672957E+01  1.022329E-03 8.146488E+01  9.968059E-01 -8.545490E+00 
2.247812500E+02  9.969845E-01 -1.461922E+01  4.844815E-04 7.562888E+01  7.470185E-04 7.443613E+01 
 4.556265E-04 8.049221E+01  9.980728E-01 -8.757761E+00  9.163715E-04 7.120506E+01 
 7.277965E-04 7.559684E+01  9.305528E-04 7.227539E+01  9.970743E-01 -8.673562E+00 
2.285000000E+02  9.963204E-01 -1.486640E+01  5.085225E-04 7.657250E+01  7.701563E-04 7.867496E+01 
 4.910329E-04 7.830280E+01  9.973681E-01 -8.912867E+00  1.048085E-03 7.259339E+01 
 7.987439E-04 7.704689E+01  1.048203E-03 7.362092E+01  9.965000E-01 -8.821331E+00 
2.322187500E+02  9.962642E-01 -1.532111E+01  5.018857E-04 7.528919E+01  7.916519E-04 7.626933E+01 
 4.965032E-04 7.796621E+01  9.966210E-01 -9.190477E+00  9.067726E-04 8.032699E+01 
 7.777263E-04 7.626563E+01  9.013138E-04 7.869894E+01  9.958068E-01 -9.091187E+00 
2.359375000E+02  9.968342E-01 -1.533214E+01  5.167454E-04 7.911703E+01  8.203942E-04 7.827723E+01 
 4.977398E-04 7.699951E+01  9.977607E-01 -9.122982E+00  8.180435E-04 7.344854E+01 
 7.903660E-04 7.811063E+01  8.385643E-04 7.415319E+01  9.971475E-01 -9.044623E+00 
2.396562500E+02  9.972468E-01 -1.555929E+01  5.148382E-04 7.608952E+01  8.029943E-04 7.831043E+01 
 5.495059E-04 7.951723E+01  9.978971E-01 -9.296106E+00  9.908975E-04 7.228664E+01 
 8.351869E-04 7.777896E+01  1.006718E-03 7.267384E+01  9.970002E-01 -9.192432E+00 
2.433750000E+02  9.975874E-01 -1.578230E+01  5.347722E-04 7.495498E+01  8.399672E-04 7.611500E+01 
 5.241685E-04 7.390917E+01  9.978366E-01 -9.428063E+00  9.650012E-04 7.359963E+01 
 8.463335E-04 7.529831E+01  9.536653E-04 7.463195E+01  9.979403E-01 -9.344821E+00 
2.470937500E+02  9.978259E-01 -1.602495E+01  5.815195E-04 7.808720E+01  8.538372E-04 7.845175E+01 
 5.906917E-04 7.758193E+01  9.982674E-01 -9.603389E+00  8.829032E-04 7.564892E+01 
 8.774770E-04 7.640717E+01  8.849779E-04 7.620987E+01  9.978096E-01 -9.487552E+00 
2.508125000E+02  9.967112E-01 -1.623992E+01  5.810498E-04 7.484565E+01  8.583742E-04 7.723262E+01 
 5.798447E-04 7.491859E+01  9.977877E-01 -9.757356E+00  9.175190E-04 7.612985E+01 
 8.700271E-04 7.648086E+01  9.213132E-04 7.542535E+01  9.972503E-01 -9.631028E+00 
2.545312500E+02  9.972998E-01 -1.647440E+01  5.754302E-04 7.742235E+01  8.561240E-04 7.607010E+01 
 5.832230E-04 7.622691E+01  9.972852E-01 -9.859722E+00  9.399237E-04 7.595696E+01 
 8.484724E-04 7.620089E+01  9.312491E-04 7.623983E+01  9.965696E-01 -9.724681E+00 
2.582500000E+02  9.975094E-01 -1.670223E+01  5.634759E-04 7.719945E+01  8.895434E-04 7.586914E+01 
 5.603544E-04 7.637351E+01  9.977698E-01 -9.967909E+00  1.021159E-03 8.315843E+01 
 8.796915E-04 7.745839E+01  1.013314E-03 8.550472E+01  9.978759E-01 -9.870749E+00 
2.619687500E+02  9.977734E-01 -1.696018E+01  5.915400E-04 7.387040E+01  8.922970E-04 7.429622E+01 
 5.713292E-04 7.408086E+01  9.979042E-01 -1.015539E+01  1.018392E-03 8.296787E+01 
 8.641505E-04 7.436904E+01  1.007991E-03 8.217499E+01  9.974021E-01 -1.001831E+01 
2.656875000E+02  9.972722E-01 -1.719609E+01  5.808764E-04 7.315756E+01  9.520107E-04 7.488868E+01 
 5.963171E-04 7.385662E+01  9.979455E-01 -1.025413E+01  8.993736E-04 7.419013E+01 
 9.149646E-04 7.689078E+01  9.035074E-04 7.491078E+01  9.980185E-01 -1.013975E+01 
2.694062500E+02  9.978104E-01 -1.746226E+01  6.126601E-04 7.456951E+01  9.106351E-04 7.533704E+01 
 6.197370E-04 7.442768E+01  9.979790E-01 -1.044054E+01  9.654272E-04 7.808088E+01 
 9.312214E-04 7.526219E+01  9.387959E-04 7.960254E+01  9.979446E-01 -1.027534E+01 
2.731250000E+02  9.972661E-01 -1.765566E+01  6.196526E-04 7.569225E+01  9.432606E-04 7.690612E+01 
 6.176521E-04 7.405722E+01  9.973296E-01 -1.060995E+01  9.515277E-04 7.858669E+01 
 9.703114E-04 7.359820E+01  9.406493E-04 7.768036E+01  9.979728E-01 -1.042786E+01 
2.768437500E+02  9.984112E-01 -1.790115E+01  6.148808E-04 7.434757E+01  9.521377E-04 7.394989E+01 
 6.045238E-04 7.413628E+01  9.974202E-01 -1.071742E+01  9.479573E-04 8.095124E+01 
 9.186517E-04 7.521096E+01  9.841338E-04 8.066740E+01  9.969404E-01 -1.056514E+01 
2.805625000E+02  9.975225E-01 -1.812893E+01  6.207214E-04 7.479978E+01  9.598340E-04 7.509873E+01 
 6.317500E-04 7.488468E+01  9.982243E-01 -1.081395E+01  1.075490E-03 8.107169E+01 
 9.591080E-04 7.553212E+01  1.079222E-03 8.087312E+01  9.968531E-01 -1.066603E+01 
2.842812500E+02  9.979292E-01 -1.837768E+01  6.241734E-04 7.368478E+01  9.918628E-04 7.537045E+01 
 6.126679E-04 7.389549E+01  9.979490E-01 -1.096481E+01  9.842390E-04 7.100272E+01 
 9.685540E-04 7.582361E+01  9.675041E-04 6.984640E+01  9.970649E-01 -1.079601E+01 
2.880000000E+02  9.980962E-01 -1.859025E+01  6.758872E-04 7.223944E+01  9.906147E-04 7.375284E+01 
 6.460074E-04 7.390023E+01  9.985715E-01 -1.114777E+01  1.029562E-03 7.924636E+01 
 9.655803E-04 7.430308E+01  1.050582E-03 7.976983E+01  9.984396E-01 -1.090936E+01 
2.917187500E+02  9.982978E-01 -1.887361E+01  6.944642E-04 7.129505E+01  1.066961E-03 7.401712E+01 
 6.953315E-04 7.240256E+01  9.984442E-01 -1.127748E+01  9.681139E-04 8.591543E+01 
 1.033259E-03 7.340318E+01  9.268708E-04 8.674474E+01  9.975312E-01 -1.105664E+01 
2.954375000E+02  9.963698E-01 -1.918932E+01  6.901383E-04 7.255372E+01  1.054095E-03 7.419007E+01 
 6.748864E-04 7.216650E+01  9.977005E-01 -1.145116E+01  9.343145E-04 8.308488E+01 
 1.035683E-03 7.455071E+01  9.414801E-04 8.282543E+01  9.980912E-01 -1.121818E+01 
2.991562500E+02  9.975004E-01 -1.930739E+01  6.274769E-04 7.069287E+01  1.015738E-03 7.156394E+01 
 6.468361E-04 6.869380E+01  9.971942E-01 -1.154561E+01  1.124365E-03 9.120371E+01 
 1.025847E-03 7.393230E+01  1.147424E-03 9.188222E+01  9.967167E-01 -1.133024E+01 
3.028750000E+02  9.973953E-01 -1.953099E+01  6.718524E-04 6.590973E+01  1.076855E-03 6.809654E+01 
 6.785785E-04 6.771375E+01  9.973248E-01 -1.169096E+01  1.207614E-03 1.012559E+02 
 1.063000E-03 7.070463E+01  1.188236E-03 1.021165E+02  9.967462E-01 -1.144606E+01 
3.065937500E+02  9.977163E-01 -1.976212E+01  6.411042E-04 7.055624E+01  1.021760E-03 7.366045E+01 
 6.322497E-04 6.931972E+01  9.973718E-01 -1.187147E+01  1.326736E-03 8.424381E+01 
 1.003933E-03 7.313739E+01  1.324903E-03 8.604704E+01  9.975769E-01 -1.158176E+01 
3.103125000E+02  9.977262E-01 -2.002760E+01  6.693964E-04 7.271356E+01  1.039998E-03 7.311809E+01 
 6.168629E-04 7.270198E+01  9.976720E-01 -1.198385E+01  1.492805E-03 8.236478E+01 
 1.027305E-03 7.267895E+01  1.489517E-03 8.137674E+01  9.974546E-01 -1.176497E+01 
3.140312500E+02  9.967914E-01 -2.031213E+01  6.455260E-04 6.872445E+01  1.028816E-03 7.283769E+01 
 6.543367E-04 6.889311E+01  9.977797E-01 -1.215548E+01  1.537237E-03 9.001239E+01 
 1.030095E-03 7.154953E+01  1.500833E-03 9.071416E+01  9.975727E-01 -1.183451E+01 
3.177500000E+02  9.971877E-01 -2.052885E+01  6.726253E-04 7.461403E+01  1.075074E-03 7.220525E+01 
 6.879820E-04 7.147490E+01  9.982633E-01 -1.233283E+01  1.447626E-03 7.322641E+01 
 1.050821E-03 7.330208E+01  1.459499E-03 7.405768E+01  9.975111E-01 -1.201775E+01 
3.214687500E+02  9.975687E-01 -2.072825E+01  6.891420E-04 7.314232E+01  1.091083E-03 7.303193E+01 
 6.693571E-04 6.855862E+01  9.958019E-01 -1.241267E+01  1.609058E-03 6.972346E+01 
 1.088768E-03 7.326396E+01  1.589373E-03 6.930368E+01  9.956324E-01 -1.211564E+01 
3.251875000E+02  9.971128E-01 -2.098337E+01  6.750206E-04 6.945774E+01  1.088867E-03 7.201955E+01 
 6.816987E-04 6.922396E+01  9.967765E-01 -1.254594E+01  1.589610E-03 7.536086E+01 
 1.077328E-03 7.214952E+01  1.560036E-03 7.441668E+01  9.969399E-01 -1.222670E+01 
3.289062500E+02  9.973679E-01 -2.118409E+01  6.942843E-04 6.966372E+01  1.111662E-03 7.244509E+01 
 6.803616E-04 7.368240E+01  9.971570E-01 -1.269682E+01  1.267189E-03 5.800526E+01 
 1.080996E-03 7.237647E+01  1.277430E-03 5.717528E+01  9.961013E-01 -1.234939E+01 
3.326250000E+02  9.965903E-01 -2.145437E+01  6.935205E-04 7.433545E+01  1.137555E-03 7.260270E+01 
 7.081494E-04 7.358481E+01  9.973452E-01 -1.286958E+01  1.311136E-03 6.010395E+01 
 1.092319E-03 7.338215E+01  1.367427E-03 6.015338E+01  9.965764E-01 -1.249390E+01 
3.363437500E+02  9.968665E-01 -2.168885E+01  7.183088E-04 7.316358E+01  1.108114E-03 7.266213E+01 
 7.077907E-04 7.247182E+01  9.973090E-01 -1.301596E+01  1.063669E-03 6.698538E+01 
 1.118004E-03 7.330021E+01  1.102331E-03 6.664694E+01  9.963966E-01 -1.259326E+01 
3.400625000E+02  9.962101E-01 -2.194561E+01  7.249230E-04 7.285801E+01  1.133187E-03 7.112022E+01 
 7.419188E-04 7.285123E+01  9.966120E-01 -1.317166E+01  8.541001E-04 6.465169E+01 
 1.126986E-03 7.072446E+01  8.917686E-04 6.576264E+01  9.965429E-01 -1.278201E+01 
3.437812500E+02  9.964390E-01 -2.212199E+01  7.723558E-04 7.208003E+01  1.130678E-03 7.485228E+01 
 7.798969E-04 7.159563E+01  9.953152E-01 -1.331120E+01  9.365156E-04 6.999268E+01 
 1.130256E-03 7.410860E+01  9.494301E-04 7.001887E+01  9.950862E-01 -1.287320E+01 
3.475000000E+02  9.967117E-01 -2.241124E+01  7.877500E-04 6.958012E+01  1.189802E-03 7.099850E+01 
 7.959466E-04 6.957464E+01  9.969157E-01 -1.345018E+01  1.168614E-03 8.739126E+01 
 1.163429E-03 7.130529E+01  1.146978E-03 8.870337E+01  9.964815E-01 -1.293031E+01 
3.512187500E+02  9.965751E-01 -2.262394E+01  7.691085E-04 6.848967E+01  1.169614E-03 7.169757E+01 
 7.750994E-04 6.907485E+01  9.965264E-01 -1.353959E+01  1.126776E-03 8.181947E+01 
 1.193943E-03 7.099625E+01  1.157108E-03 8.196555E+01  9.955113E-01 -1.309692E+01 
3.549375000E+02  9.965371E-01 -2.287674E+01  8.123091E-04 6.943891E+01  1.197611E-03 6.976173E+01 
 7.865473E-04 6.996371E+01  9.967985E-01 -1.373683E+01  1.185195E-03 7.962104E+01 
 1.195402E-03 7.166712E+01  1.158094E-03 7.973514E+01  9.965763E-01 -1.323853E+01 
3.586562500E+02  9.968317E-01 -2.311794E+01  6.946482E-04 6.646148E+01  1.142324E-03 6.802067E+01 
 7.110171E-04 6.952561E+01  9.970039E-01 -1.387676E+01  1.344426E-03 8.505932E+01 
 1.156483E-03 6.923327E+01  1.369234E-03 8.433479E+01  9.966494E-01 -1.339199E+01 
3.623750000E+02  9.963765E-01 -2.335234E+01  7.926131E-04 6.872317E+01  1.208254E-03 6.832008E+01 
 7.607121E-04 6.660048E+01  9.972795E-01 -1.406747E+01  1.276998E-03 8.230402E+01 
 1.243305E-03 6.814432E+01  1.280772E-03 8.504766E+01  9.965876E-01 -1.356664E+01 
3.660937500E+02  9.967416E-01 -2.357185E+01  7.277787E-04 7.289426E+01  1.175422E-03 7.133342E+01 
 7.718828E-04 7.182950E+01  9.954479E-01 -1.419859E+01  1.482734E-03 7.367384E+01 
 1.185038E-03 7.015268E+01  1.435004E-03 7.272296E+01  9.957262E-01 -1.372704E+01 
3.698125000E+02  9.967148E-01 -2.382425E+01  7.425102E-04 7.143605E+01  1.169111E-03 7.097995E+01 
 7.408345E-04 6.684645E+01  9.961510E-01 -1.433332E+01  1.545849E-03 8.360467E+01 
 1.170897E-03 7.043039E+01  1.541662E-03 8.314922E+01  9.963791E-01 -1.382180E+01 
3.735312500E+02  9.961768E-01 -2.407158E+01  7.437028E-04 6.852767E+01  1.184930E-03 6.973784E+01 
 7.077644E-04 6.685858E+01  9.970203E-01 -1.444886E+01  1.456824E-03 7.476517E+01 
 1.179788E-03 6.895302E+01  1.497607E-03 7.567847E+01  9.968581E-01 -1.393966E+01 
3.772500000E+02  9.964496E-01 -2.434191E+01  7.459674E-04 6.977410E+01  1.221871E-03 7.122192E+01 
 7.604248E-04 7.165458E+01  9.968112E-01 -1.459795E+01  1.295480E-03 7.284324E+01 
 1.187962E-03 7.058262E+01  1.314103E-03 7.371041E+01  9.969210E-01 -1.412537E+01 
3.809687500E+02  9.956859E-01 -2.456054E+01  7.785443E-04 6.890493E+01  1.248429E-03 6.896331E+01 
 7.834897E-04 6.792251E+01  9.969194E-01 -1.479562E+01  1.432851E-03 7.861855E+01 
 1.252618E-03 6.941319E+01  1.459031E-03 7.686929E+01  9.957200E-01 -1.426086E+01 
3.846875000E+02  9.953683E-01 -2.484149E+01  8.032096E-04 6.869746E+01  1.258234E-03 7.040719E+01 
 7.909297E-04 6.733346E+01  9.965553E-01 -1.494468E+01  1.437993E-03 7.662101E+01 
 1.261523E-03 7.101172E+01  1.439194E-03 7.683276E+01  9.966380E-01 -1.444761E+01 
3.884062500E+02  9.954626E-01 -2.495987E+01  8.041591E-04 6.841855E+01  1.280818E-03 6.941113E+01 
 7.794398E-04 6.653557E+01  9.955757E-01 -1.514773E+01  1.439164E-03 7.379606E+01 
 1.267424E-03 7.050480E+01  1.438032E-03 7.432191E+01  9.956517E-01 -1.461690E+01 
3.921250000E+02  9.958152E-01 -2.524760E+01  7.936606E-04 6.938821E+01  1.248938E-03 7.087238E+01 
 7.888636E-04 7.082104E+01  9.954655E-01 -1.520885E+01  1.416098E-03 7.805935E+01 
 1.262540E-03 7.001156E+01  1.433422E-03 7.763693E+01  9.950956E-01 -1.468450E+01 
3.958437500E+02  9.956410E-01 -2.551152E+01  8.073545E-04 7.007476E+01  1.284235E-03 6.924619E+01 
 7.906953E-04 6.794768E+01  9.961422E-01 -1.530195E+01  1.587965E-03 7.240114E+01 
 1.272112E-03 6.978420E+01  1.610731E-03 7.287380E+01  9.962764E-01 -1.481993E+01 
3.995625000E+02  9.954348E-01 -2.575704E+01  8.290023E-04 6.915141E+01  1.247938E-03 6.907206E+01 
 8.410780E-04 6.810333E+01  9.962685E-01 -1.548181E+01  1.481672E-03 7.517688E+01 
 1.299005E-03 6.883656E+01  1.503038E-03 7.372603E+01  9.961460E-01 -1.500283E+01 
4.032812500E+02  9.959009E-01 -2.604147E+01  8.268228E-04 6.796857E+01  1.341593E-03 6.909347E+01 
 8.234963E-04 6.680217E+01  9.965273E-01 -1.561885E+01  1.511188E-03 7.541786E+01 
 1.335965E-03 6.868067E+01  1.500213E-03 7.458989E+01  9.956958E-01 -1.515616E+01 
4.070000000E+02  9.956409E-01 -2.629257E+01  8.322973E-04 6.682469E+01  1.317859E-03 6.809350E+01 
 8.255132E-04 6.831952E+01  9.967761E-01 -1.579471E+01  1.583714E-03 7.551162E+01 
 1.314857E-03 6.803698E+01  1.563866E-03 7.571209E+01  9.956937E-01 -1.530103E+01 
4.107187500E+02  9.959376E-01 -2.640751E+01  8.680674E-04 6.638150E+01  1.377678E-03 6.766913E+01 
 9.003439E-04 6.637444E+01  9.957097E-01 -1.596621E+01  1.529669E-03 7.667523E+01 
 1.365428E-03 6.900319E+01  1.535531E-03 7.682182E+01  9.955108E-01 -1.546274E+01 
4.144375000E+02  9.959501E-01 -2.670563E+01  8.272118E-04 6.695933E+01  1.310248E-03 6.656068E+01 
 8.458525E-04 6.664797E+01  9.957370E-01 -1.602909E+01  1.462666E-03 7.800881E+01 
 1.307479E-03 6.682507E+01  1.469801E-03 7.722472E+01  9.947524E-01 -1.552747E+01 
4.181562500E+02  9.953807E-01 -2.690139E+01  8.069494E-04 6.466862E+01  1.313629E-03 6.461444E+01 
 8.139135E-04 6.517567E+01  9.955766E-01 -1.613974E+01  1.670729E-03 6.845973E+01 
 1.324586E-03 6.469542E+01  1.656829E-03 6.847997E+01  9.946795E-01 -1.570459E+01 
4.218750000E+02  9.946659E-01 -2.717056E+01  8.328798E-04 6.541262E+01  1.311918E-03 6.601590E+01 
 8.274729E-04 6.582633E+01  9.955994E-01 -1.636029E+01  1.465398E-03 6.982492E+01 
 1.311401E-03 6.512203E+01  1.492630E-03 7.021424E+01  9.949724E-01 -1.584291E+01 
4.255937500E+02  9.945529E-01 -2.738865E+01  8.243555E-04 6.856741E+01  1.311208E-03 6.850767E+01 
 8.226183E-04 6.751350E+01  9.957909E-01 -1.651610E+01  1.423977E-03 6.803357E+01 
 1.299978E-03 6.698692E+01  1.469402E-03 6.783076E+01  9.947006E-01 -1.598338E+01 
4.293125000E+02  9.951373E-01 -2.764518E+01  8.369024E-04 7.002967E+01  1.331783E-03 6.905350E+01 
 8.314520E-04 6.941155E+01  9.957720E-01 -1.659640E+01  1.508675E-03 6.810259E+01 
 1.325921E-03 6.854922E+01  1.516784E-03 6.812205E+01  9.952514E-01 -1.618998E+01 
4.330312500E+02  9.935905E-01 -2.781804E+01  8.943656E-04 6.934099E+01  1.347303E-03 6.945254E+01 
 8.619601E-04 6.974166E+01  9.942094E-01 -1.675809E+01  1.393601E-03 7.061960E+01 
 1.375955E-03 6.892896E+01  1.418167E-03 7.055435E+01  9.947219E-01 -1.636384E+01 
4.367500000E+02  9.946881E-01 -2.806066E+01  9.056250E-04 6.612773E+01  1.400853E-03 6.925577E+01 
 9.052223E-04 6.612992E+01  9.932072E-01 -1.683950E+01  1.330845E-03 6.313692E+01 
 1.413182E-03 6.865025E+01  1.350355E-03 6.254295E+01  9.930887E-01 -1.646030E+01 
4.404687500E+02  9.954275E-01 -2.842796E+01  9.147553E-04 6.364101E+01  1.369674E-03 6.829490E+01 
 9.121485E-04 6.378961E+01  9.952437E-01 -1.702343E+01  1.694377E-03 7.020349E+01 
 1.371028E-03 6.887168E+01  1.700855E-03 7.084711E+01  9.936302E-01 -1.663930E+01 
4.441875000E+02  9.946545E-01 -2.864599E+01  9.037327E-04 6.083277E+01  1.399227E-03 6.428271E+01 
 8.920795E-04 6.271700E+01  9.957042E-01 -1.714724E+01  1.388244E-03 7.748924E+01 
 1.411379E-03 6.440297E+01  1.395040E-03 7.805643E+01  9.938832E-01 -1.679156E+01 
4.479062500E+02  9.953022E-01 -2.887984E+01  8.651011E-04 6.369475E+01  1.459949E-03 6.642049E+01 
 8.734860E-04 6.471168E+01  9.960204E-01 -1.727676E+01  1.219583E-03 7.856436E+01 
 1.490153E-03 6.608297E+01  1.207391E-03 7.883869E+01  9.939826E-01 -1.695819E+01 
4.516250000E+02  9.952143E-01 -2.916117E+01  8.844438E-04 6.100986E+01  1.413881E-03 6.736152E+01 
 8.747811E-04 6.159621E+01  9.967688E-01 -1.747579E+01  1.501789E-03 7.631904E+01 
 1.418979E-03 6.800385E+01  1.490694E-03 7.790141E+01  9.947439E-01 -1.711616E+01 
4.553437500E+02  9.938902E-01 -2.934144E+01  8.504699E-04 5.929789E+01  1.402993E-03 6.338284E+01 
 8.634563E-04 6.065017E+01  9.956908E-01 -1.761371E+01  1.683479E-03 8.759879E+01 
 1.434776E-03 6.218819E+01  1.684234E-03 8.743481E+01  9.943666E-01 -1.726737E+01 
4.590625000E+02  9.951123E-01 -2.954712E+01  8.842137E-04 6.462822E+01  1.467952E-03 6.436280E+01 
 8.633002E-04 6.343861E+01  9.954342E-01 -1.773914E+01  1.463953E-03 8.278222E+01 
 1.461031E-03 6.446180E+01  1.484965E-03 8.363425E+01  9.932140E-01 -1.739379E+01 
4.627812500E+02  9.953734E-01 -2.984474E+01  8.650186E-04 6.360244E+01  1.393034E-03 6.509591E+01 