! Matrix data file written by TouchstoneData, EPCOS AG
! FILENAME: "ansys_B4328_NB.s3p"
! COMMENT: "(B4328_NB.s3p) Epcos AG 7/1/2013 1:54:30 PM"
! INFO: nport=3, nfreq=1601
! DATE: "Mon Jul  8 13:10:38 2013"
! USER: "Daniel Harbusch"
!
! port | pin | signal
! -----|-----|--------
!   1  |  1  |  Input
!   2  |  3  |  Output balanced
!   3  |  4  |  Output balanced
! --------------------
! 
# MHZ S MA R 50
! freq  magS11 angS11  magS12 angS12  magS13 angS13  ...
1.600000000E+03  9.657807E-01 -9.640163E+01  2.899980E-03 1.770697E+02  2.293947E-03 -1.714535E+02 
 2.881369E-03 1.768055E+02  9.695098E-01 -6.203549E+01  4.379446E-03 -6.375935E+01 
 2.290197E-03 -1.716319E+02  4.396045E-03 -6.392803E+01  9.684555E-01 -6.272818E+01 
1.600312500E+03  9.656815E-01 -9.644425E+01  2.856518E-03 1.761249E+02  2.351929E-03 -1.716583E+02 
 2.809293E-03 1.760719E+02  9.689194E-01 -6.203523E+01  5.319165E-03 -7.097462E+01 
 2.372282E-03 -1.715162E+02  5.332731E-03 -7.113201E+01  9.674756E-01 -6.271159E+01 
1.600625000E+03  9.656727E-01 -9.644896E+01  2.789833E-03 1.767617E+02  2.410998E-03 -1.721055E+02 
 2.750193E-03 1.770611E+02  9.686908E-01 -6.201321E+01  5.905001E-03 -8.151559E+01 
 2.369780E-03 -1.718974E+02  5.896183E-03 -8.123277E+01  9.672146E-01 -6.266135E+01 
1.600937500E+03  9.658735E-01 -9.645342E+01  2.759130E-03 1.767956E+02  2.386289E-03 -1.719061E+02 
 2.757844E-03 1.768705E+02  9.685174E-01 -6.199078E+01  6.235501E-03 -8.993905E+01 
 2.393741E-03 -1.723030E+02  6.240931E-03 -8.986419E+01  9.674327E-01 -6.264658E+01 
1.601250000E+03  9.658188E-01 -9.647123E+01  2.737907E-03 1.766051E+02  2.435579E-03 -1.716377E+02 
 2.725706E-03 1.763531E+02  9.685188E-01 -6.194488E+01  6.598687E-03 -9.795245E+01 
 2.390596E-03 -1.715121E+02  6.569805E-03 -9.782847E+01  9.676209E-01 -6.262719E+01 
1.601562500E+03  9.659817E-01 -9.648848E+01  2.672392E-03 1.769498E+02  2.455142E-03 -1.718266E+02 
 2.673183E-03 1.770682E+02  9.692021E-01 -6.192505E+01  6.538223E-03 -1.077081E+02 
 2.450190E-03 -1.723114E+02  6.546189E-03 -1.075824E+02  9.683707E-01 -6.261285E+01 
1.601875000E+03  9.658173E-01 -9.651366E+01  2.668637E-03 1.777025E+02  2.461202E-03 -1.721919E+02 
 2.668355E-03 1.774471E+02  9.700514E-01 -6.194624E+01  6.102631E-03 -1.142189E+02 
 2.475204E-03 -1.725080E+02  6.100502E-03 -1.141184E+02  9.689395E-01 -6.263177E+01 
1.602187500E+03  9.659108E-01 -9.653832E+01  2.628733E-03 1.777784E+02  2.511339E-03 -1.721793E+02 
 2.630201E-03 1.781442E+02  9.703188E-01 -6.197483E+01  5.861223E-03 -1.168991E+02 
 2.522971E-03 -1.718863E+02  5.884846E-03 -1.166948E+02  9.689472E-01 -6.265361E+01 
1.602500000E+03  9.660054E-01 -9.655861E+01  2.580889E-03 1.789154E+02  2.593085E-03 -1.725059E+02 
 2.584061E-03 1.789619E+02  9.704015E-01 -6.199363E+01  5.881646E-03 -1.205637E+02 
 2.579930E-03 -1.726218E+02  5.882337E-03 -1.203307E+02  9.688974E-01 -6.267987E+01 
1.602812500E+03  9.661282E-01 -9.658970E+01  2.584268E-03 1.796855E+02  2.596648E-03 -1.736135E+02 
 2.538709E-03 1.799540E+02  9.707739E-01 -6.201490E+01  5.716997E-03 -1.253789E+02 
 2.586049E-03 -1.739444E+02  5.720527E-03 -1.253493E+02  9.693101E-01 -6.270852E+01 
1.603125000E+03  9.659463E-01 -9.663399E+01  2.580670E-03 -1.788875E+02  2.592251E-03 -1.741848E+02 
 2.586464E-03 -1.795177E+02  9.707765E-01 -6.204074E+01  5.358399E-03 -1.285519E+02 
 2.586471E-03 -1.741373E+02  5.370978E-03 -1.285452E+02  9.697526E-01 -6.272655E+01 
1.603437500E+03  9.659837E-01 -9.666389E+01  2.623647E-03 -1.788296E+02  2.611337E-03 -1.737960E+02 
 2.587360E-03 -1.789478E+02  9.713677E-01 -6.207005E+01  5.107122E-03 -1.296195E+02 
 2.584541E-03 -1.735304E+02  5.096458E-03 -1.295709E+02  9.699716E-01 -6.276709E+01 
1.603750000E+03  9.659176E-01 -9.668226E+01  2.592588E-03 -1.789422E+02  2.653942E-03 -1.736203E+02 
 2.598218E-03 -1.789034E+02  9.714193E-01 -6.207981E+01  4.964249E-03 -1.302466E+02 
 2.658414E-03 -1.734758E+02  4.952534E-03 -1.299431E+02  9.699662E-01 -6.280106E+01 
1.604062500E+03  9.661709E-01 -9.671414E+01  2.569341E-03 -1.788766E+02  2.709439E-03 -1.754272E+02 
 2.553934E-03 -1.792819E+02  9.715166E-01 -6.209040E+01  4.833136E-03 -1.301639E+02 
 2.718850E-03 -1.746853E+02  4.879369E-03 -1.303026E+02  9.702212E-01 -6.281729E+01 
1.604375000E+03  9.663599E-01 -9.675342E+01  2.518548E-03 -1.773054E+02  2.760800E-03 -1.763341E+02 
 2.506303E-03 -1.779115E+02  9.716871E-01 -6.212948E+01  4.708275E-03 -1.297081E+02 
 2.770538E-03 -1.761761E+02  4.729585E-03 -1.294566E+02  9.703579E-01 -6.285953E+01 
1.604687500E+03  9.665117E-01 -9.677403E+01  2.540361E-03 -1.763543E+02  2.719026E-03 -1.781934E+02 
 2.532175E-03 -1.762144E+02  9.718968E-01 -6.215852E+01  4.858201E-03 -1.278792E+02 
 2.715678E-03 -1.782487E+02  4.860576E-03 -1.280035E+02  9.703349E-01 -6.287528E+01 
1.605000000E+03  9.662620E-01 -9.682048E+01  2.633599E-03 -1.752736E+02  2.643281E-03 -1.790759E+02 
 2.622277E-03 -1.752391E+02  9.716155E-01 -6.217173E+01  5.074230E-03 -1.301939E+02 
 2.638020E-03 -1.788404E+02  5.042419E-03 -1.301436E+02  9.703800E-01 -6.289486E+01 
1.605312500E+03  9.662025E-01 -9.685264E+01  2.687781E-03 -1.760323E+02  2.578359E-03 -1.790646E+02 
 2.659638E-03 -1.758569E+02  9.717835E-01 -6.219359E+01  5.019382E-03 -1.328730E+02 
 2.586161E-03 -1.783132E+02  5.009987E-03 -1.330855E+02  9.705185E-01 -6.293323E+01 
1.605625000E+03  9.661463E-01 -9.688645E+01  2.675744E-03 -1.766015E+02  2.570319E-03 -1.779983E+02 
 2.675589E-03 -1.769439E+02  9.719965E-01 -6.221246E+01  4.951162E-03 -1.335305E+02 
 2.545163E-03 -1.779935E+02  4.938205E-03 -1.338076E+02  9.703877E-01 -6.296007E+01 
1.605937500E+03  9.663375E-01 -9.692519E+01  2.668021E-03 -1.771608E+02  2.582003E-03 -1.767464E+02 
 2.657839E-03 -1.770185E+02  9.721255E-01 -6.224340E+01  4.947109E-03 -1.347881E+02 
 2.576394E-03 -1.768865E+02  4.913753E-03 -1.348247E+02  9.704790E-01 -6.298362E+01 
1.606250000E+03  9.662584E-01 -9.694006E+01  2.636624E-03 -1.772968E+02  2.593229E-03 -1.763407E+02 
 2.655344E-03 -1.777907E+02  9.720120E-01 -6.227947E+01  4.864035E-03 -1.351528E+02 
 2.604495E-03 -1.761369E+02  4.874316E-03 -1.350848E+02  9.703849E-01 -6.303071E+01 
1.606562500E+03  9.662951E-01 -9.696625E+01  2.575852E-03 -1.787259E+02  2.625417E-03 -1.762502E+02 
 2.593086E-03 -1.783381E+02  9.717383E-01 -6.230056E+01  4.933724E-03 -1.350687E+02 
 2.629130E-03 -1.762488E+02  4.931019E-03 -1.349731E+02  9.704747E-01 -6.304904E+01 
1.606875000E+03  9.665838E-01 -9.700419E+01  2.562528E-03 -1.778508E+02  2.660721E-03 -1.761181E+02 
 2.566072E-03 -1.779401E+02  9.717543E-01 -6.233176E+01  4.990914E-03 -1.372502E+02 
 2.664570E-03 -1.759752E+02  4.987181E-03 -1.373887E+02  9.702032E-01 -6.306869E+01 
1.607187500E+03  9.665728E-01 -9.703801E+01  2.554812E-03 -1.769936E+02  2.689852E-03 -1.754437E+02 
 2.547644E-03 -1.777069E+02  9.718940E-01 -6.235821E+01  4.872766E-03 -1.384575E+02 
 2.694168E-03 -1.759814E+02  4.845984E-03 -1.385051E+02  9.704679E-01 -6.310774E+01 
1.607500000E+03  9.663876E-01 -9.707455E+01  2.527109E-03 -1.770226E+02  2.745152E-03 -1.760617E+02 
 2.511053E-03 -1.777919E+02  9.714670E-01 -6.238798E+01  4.708954E-03 -1.383003E+02 
 2.747069E-03 -1.763539E+02  4.715978E-03 -1.381114E+02  9.703351E-01 -6.313146E+01 
1.607812500E+03  9.662347E-01 -9.711119E+01  2.496201E-03 -1.764897E+02  2.763069E-03 -1.767738E+02 
 2.486932E-03 -1.766388E+02  9.712867E-01 -6.240516E+01  4.768792E-03 -1.367127E+02 
 2.753908E-03 -1.766690E+02  4.782453E-03 -1.367446E+02  9.698148E-01 -6.316270E+01 
1.608125000E+03  9.662322E-01 -9.713375E+01  2.491619E-03 -1.759803E+02  2.793354E-03 -1.765591E+02 
 2.473829E-03 -1.764991E+02  9.709329E-01 -6.244336E+01  4.883660E-03 -1.360687E+02 
 2.753970E-03 -1.764745E+02  4.869754E-03 -1.364996E+02  9.693758E-01 -6.318117E+01 
1.608437500E+03  9.666609E-01 -9.717330E+01  2.432348E-03 -1.756128E+02  2.853641E-03 -1.769457E+02 
 2.384706E-03 -1.758421E+02  9.707816E-01 -6.242728E+01  5.042937E-03 -1.372233E+02 
 2.836864E-03 -1.769040E+02  5.038408E-03 -1.374433E+02  9.693991E-01 -6.319429E+01 
1.608750000E+03  9.664767E-01 -9.722117E+01  2.407695E-03 -1.746594E+02  2.882018E-03 -1.784222E+02 
 2.406133E-03 -1.750451E+02  9.710046E-01 -6.244054E+01  5.055125E-03 -1.388946E+02 
 2.851006E-03 -1.782068E+02  5.069849E-03 -1.389778E+02  9.693280E-01 -6.322426E+01 
1.609062500E+03  9.663311E-01 -9.725088E+01  2.400567E-03 -1.736215E+02  2.854662E-03 -1.794234E+02 
 2.391292E-03 -1.733720E+02  9.710676E-01 -6.247298E+01  5.092915E-03 -1.388414E+02 
 2.849414E-03 -1.792815E+02  5.064298E-03 -1.387963E+02  9.689945E-01 -6.323698E+01 
1.609375000E+03  9.663368E-01 -9.728685E+01  2.376915E-03 -1.726367E+02  2.852785E-03 -1.799659E+02 
 2.413670E-03 -1.728245E+02  9.711144E-01 -6.248821E+01  5.134508E-03 -1.397578E+02 
 2.831928E-03 -1.797834E+02  5.148424E-03 -1.401421E+02  9.689037E-01 -6.325972E+01 
1.609687500E+03  9.663313E-01 -9.732206E+01  2.362871E-03 -1.710440E+02  2.851436E-03 1.796477E+02 
 2.396634E-03 -1.719092E+02  9.710390E-01 -6.251955E+01  5.149675E-03 -1.404237E+02 
 2.859085E-03 1.796381E+02  5.159978E-03 -1.401723E+02  9.690785E-01 -6.328672E+01 
1.610000000E+03  9.661186E-01 -9.735497E+01  2.386952E-03 -1.707406E+02  2.845521E-03 1.796610E+02 
 2.405140E-03 -1.700554E+02  9.708034E-01 -6.254116E+01  5.208623E-03 -1.404386E+02 
 2.833488E-03 1.795220E+02  5.241799E-03 -1.404623E+02  9.690333E-01 -6.330940E+01 
1.610312500E+03  9.660735E-01 -9.737994E+01  2.402596E-03 -1.691854E+02  2.854487E-03 1.795928E+02 
 2.400995E-03 -1.694813E+02  9.706340E-01 -6.255091E+01  5.313572E-03 -1.412461E+02 
 2.832869E-03 1.791021E+02  5.335830E-03 -1.416454E+02  9.687468E-01 -6.333826E+01 
1.610625000E+03  9.657848E-01 -9.741279E+01  2.386951E-03 -1.686651E+02  2.872491E-03 1.795635E+02 
 2.414664E-03 -1.686310E+02  9.702899E-01 -6.256615E+01  5.315460E-03 -1.420326E+02 
 2.836833E-03 1.798124E+02  5.332565E-03 -1.420110E+02  9.687171E-01 -6.335003E+01 
1.610937500E+03  9.658299E-01 -9.746254E+01  2.404374E-03 -1.679437E+02  2.938097E-03 1.782967E+02 
 2.375714E-03 -1.673348E+02  9.703656E-01 -6.259038E+01  5.297485E-03 -1.425947E+02 
 2.936957E-03 1.792888E+02  5.305401E-03 -1.427247E+02  9.688047E-01 -6.337975E+01 
1.611250000E+03  9.653746E-01 -9.749277E+01  2.415987E-03 -1.657926E+02  2.940585E-03 1.772429E+02 
 2.399006E-03 -1.656634E+02  9.698966E-01 -6.258558E+01  5.346114E-03 -1.415137E+02 
 2.927727E-03 1.779324E+02  5.367815E-03 -1.413954E+02  9.688521E-01 -6.339963E+01 
1.611562500E+03  9.651882E-01 -9.752411E+01  2.487364E-03 -1.639275E+02  2.923007E-03 1.763223E+02 
 2.493996E-03 -1.645963E+02  9.699800E-01 -6.255990E+01  5.630825E-03 -1.408263E+02 
 2.926090E-03 1.766992E+02  5.653163E-03 -1.406767E+02  9.684585E-01 -6.339863E+01 
1.611875000E+03  9.648361E-01 -9.755694E+01  2.563140E-03 -1.640554E+02  2.913636E-03 1.754410E+02 
 2.546300E-03 -1.633496E+02  9.701331E-01 -6.256703E+01  5.855317E-03 -1.430492E+02 
 2.901412E-03 1.757417E+02  5.858676E-03 -1.429146E+02  9.688248E-01 -6.340823E+01 
1.612187500E+03  9.646833E-01 -9.758037E+01  2.597711E-03 -1.637376E+02  2.887361E-03 1.748099E+02 
 2.585953E-03 -1.638718E+02  9.704918E-01 -6.257487E+01  5.969415E-03 -1.441510E+02 
 2.881045E-03 1.751010E+02  5.996143E-03 -1.438820E+02  9.687818E-01 -6.344757E+01 
1.612500000E+03  9.645915E-01 -9.759734E+01  2.663748E-03 -1.635563E+02  2.864185E-03 1.744042E+02 
 2.636102E-03 -1.639580E+02  9.710026E-01 -6.258577E+01  6.135299E-03 -1.455301E+02 
 2.842704E-03 1.747832E+02  6.165929E-03 -1.456127E+02  9.686069E-01 -6.346361E+01 
1.612812500E+03  9.645538E-01 -9.763605E+01  2.664973E-03 -1.646936E+02  2.858384E-03 1.741547E+02 
 2.648439E-03 -1.641812E+02  9.709763E-01 -6.260138E+01  6.259915E-03 -1.475453E+02 
 2.865932E-03 1.745510E+02  6.290190E-03 -1.477490E+02  9.685555E-01 -6.348016E+01 
1.613125000E+03  9.644963E-01 -9.765992E+01  2.645635E-03 -1.640289E+02  2.872406E-03 1.729453E+02 
 2.637968E-03 -1.639098E+02  9.709822E-01 -6.263869E+01  6.318781E-03 -1.495964E+02 
 2.865292E-03 1.730756E+02  6.349117E-03 -1.495236E+02  9.685757E-01 -6.349754E+01 
1.613437500E+03  9.642780E-01 -9.767132E+01  2.661359E-03 -1.630098E+02  2.809374E-03 1.720477E+02 
 2.663088E-03 -1.628261E+02  9.709761E-01 -6.268101E+01  6.474077E-03 -1.512169E+02 
 2.808237E-03 1.720951E+02  6.467402E-03 -1.512940E+02  9.684423E-01 -6.351460E+01 
1.613750000E+03  9.644820E-01 -9.770099E+01  2.735163E-03 -1.627638E+02  2.751632E-03 1.719894E+02 
 2.701234E-03 -1.631713E+02  9.706751E-01 -6.269754E+01  6.587628E-03 -1.540275E+02 
 2.742004E-03 1.713276E+02  6.595731E-03 -1.541078E+02  9.685045E-01 -6.352424E+01 
1.614062500E+03  9.647812E-01 -9.773463E+01  2.719856E-03 -1.635067E+02  2.689143E-03 1.712218E+02 
 2.717295E-03 -1.633597E+02  9.709189E-01 -6.273619E+01  6.519843E-03 -1.569900E+02 
 2.709291E-03 1.719769E+02  6.531371E-03 -1.572182E+02  9.682590E-01 -6.352559E+01 
1.614375000E+03  9.645191E-01 -9.776323E+01  2.684710E-03 -1.625571E+02  2.658949E-03 1.717955E+02 
 2.689304E-03 -1.624613E+02  9.709636E-01 -6.278742E+01  6.379160E-03 -1.590327E+02 
 2.660975E-03 1.719625E+02  6.381546E-03 -1.590259E+02  9.682865E-01 -6.352579E+01 
1.614687500E+03  9.643802E-01 -9.777737E+01  2.704877E-03 -1.615332E+02  2.648507E-03 1.715826E+02 
 2.693825E-03 -1.610812E+02  9.702593E-01 -6.281347E+01  6.263759E-03 -1.593029E+02 
 2.636749E-03 1.713483E+02  6.267587E-03 -1.593581E+02  9.682725E-01 -6.353407E+01 
1.615000000E+03  9.645904E-01 -9.780777E+01  2.740046E-03 -1.603435E+02  2.576772E-03 1.714572E+02 
 2.729577E-03 -1.600672E+02  9.700148E-01 -6.282947E+01  6.364858E-03 -1.602542E+02 
 2.589831E-03 1.708844E+02  6.355244E-03 -1.605136E+02  9.684333E-01 -6.354819E+01 
1.615312500E+03  9.644336E-01 -9.783834E+01  2.772798E-03 -1.587636E+02  2.516313E-03 1.721757E+02 
 2.782513E-03 -1.587319E+02  9.697932E-01 -6.285964E+01  6.354751E-03 -1.621190E+02 
 2.530209E-03 1.724504E+02  6.344602E-03 -1.621983E+02  9.691068E-01 -6.356846E+01 
1.615625000E+03  9.640759E-01 -9.788029E+01  2.885963E-03 -1.581905E+02  2.533545E-03 1.729928E+02 
 2.875652E-03 -1.587100E+02  9.697294E-01 -6.284689E+01  6.258940E-03 -1.635913E+02 
 2.520462E-03 1.728799E+02  6.279443E-03 -1.635981E+02  9.692596E-01 -6.359080E+01 
1.615937500E+03  9.638569E-01 -9.789042E+01  2.916777E-03 -1.593683E+02  2.514450E-03 1.728084E+02 
 2.910623E-03 -1.587464E+02  9.701534E-01 -6.288031E+01  6.271958E-03 -1.641751E+02 
 2.485653E-03 1.732504E+02  6.251415E-03 -1.640463E+02  9.691515E-01 -6.362519E+01 
1.616250000E+03  9.636885E-01 -9.792571E+01  2.949313E-03 -1.578764E+02  2.463470E-03 1.732394E+02 
 2.931379E-03 -1.581505E+02  9.700036E-01 -6.291457E+01  6.282450E-03 -1.654860E+02 
 2.454815E-03 1.736532E+02  6.264047E-03 -1.655225E+02  9.696527E-01 -6.364588E+01 
1.616562500E+03  9.631954E-01 -9.795403E+01  3.036988E-03 -1.564305E+02  2.454277E-03 1.739739E+02 
 3.049365E-03 -1.562607E+02  9.700093E-01 -6.290432E+01  6.205842E-03 -1.665689E+02 
 2.439650E-03 1.739376E+02  6.190364E-03 -1.664936E+02  9.697446E-01 -6.367341E+01 
1.616875000E+03  9.627731E-01 -9.798772E+01  3.238161E-03 -1.570889E+02  2.442521E-03 1.743877E+02 
 3.237115E-03 -1.568664E+02  9.702377E-01 -6.291558E+01  6.261412E-03 -1.664811E+02 
 2.445888E-03 1.743621E+02  6.255502E-03 -1.664055E+02  9.701471E-01 -6.371114E+01 
1.617187500E+03  9.627098E-01 -9.800365E+01  3.311898E-03 -1.588105E+02  2.434074E-03 1.748541E+02 
 3.294194E-03 -1.589852E+02  9.705450E-01 -6.292387E+01  6.438624E-03 -1.674168E+02 
 2.421625E-03 1.748727E+02  6.436464E-03 -1.672072E+02  9.698552E-01 -6.375727E+01 
1.617500000E+03  9.622112E-01 -9.800894E+01  3.330587E-03 -1.595086E+02  2.421669E-03 1.763038E+02 
 3.372726E-03 -1.600376E+02  9.707683E-01 -6.295457E+01  6.578117E-03 -1.700820E+02 
 2.384416E-03 1.760608E+02  6.600354E-03 -1.700078E+02  9.697239E-01 -6.379984E+01 
1.617812500E+03  9.619358E-01 -9.801407E+01  3.411882E-03 -1.610757E+02  2.396758E-03 1.765247E+02 
 3.413741E-03 -1.608051E+02  9.706430E-01 -6.298608E+01  6.595051E-03 -1.723001E+02 
 2.403525E-03 1.763599E+02  6.594883E-03 -1.723618E+02  9.694440E-01 -6.382041E+01 
1.618125000E+03  9.621798E-01 -9.799626E+01  3.397606E-03 -1.616196E+02  2.362673E-03 1.769363E+02 
 3.436341E-03 -1.618888E+02  9.706798E-01 -6.301880E+01  6.640434E-03 -1.747443E+02 
 2.369147E-03 1.771426E+02  6.663751E-03 -1.748369E+02  9.691249E-01 -6.384861E+01 
1.618437500E+03  9.628418E-01 -9.802952E+01  3.373810E-03 -1.631144E+02  2.305335E-03 1.779697E+02 
 3.383640E-03 -1.628477E+02  9.703702E-01 -6.302967E+01  6.658505E-03 -1.781375E+02 
 2.323622E-03 1.783486E+02  6.659287E-03 -1.779502E+02  9.687894E-01 -6.385233E+01 
1.618750000E+03  9.630075E-01 -9.805378E+01  3.377994E-03 -1.625763E+02  2.367817E-03 -1.795207E+02 
 3.379750E-03 -1.624199E+02  9.702785E-01 -6.304612E+01  6.574955E-03 1.787353E+02 
 2.365835E-03 -1.794208E+02  6.579638E-03 1.786495E+02  9.686129E-01 -6.387285E+01 
1.619062500E+03  9.635294E-01 -9.807414E+01  3.414118E-03 -1.622016E+02  2.364559E-03 -1.789978E+02 
 3.394148E-03 -1.626518E+02  9.699435E-01 -6.306048E+01  6.460983E-03 1.754776E+02 
 2.376953E-03 -1.788692E+02  6.478901E-03 1.758065E+02  9.683430E-01 -6.388691E+01 
1.619375000E+03  9.637810E-01 -9.813508E+01  3.455973E-03 -1.628778E+02  2.404321E-03 -1.780241E+02 
 3.478422E-03 -1.628499E+02  9.696935E-01 -6.305533E+01  6.291300E-03 1.710367E+02 
 2.397636E-03 -1.781472E+02  6.295891E-03 1.710113E+02  9.683795E-01 -6.389692E+01 
1.619687500E+03  9.637678E-01 -9.817002E+01  3.459844E-03 -1.627566E+02  2.421478E-03 -1.770119E+02 
 3.472855E-03 -1.630639E+02  9.696108E-01 -6.305697E+01  5.849059E-03 1.673157E+02 
 2.420990E-03 -1.772909E+02  5.875386E-03 1.672250E+02  9.684046E-01 -6.387370E+01 
1.620000000E+03  9.637762E-01 -9.820962E+01  3.492247E-03 -1.635338E+02  2.508929E-03 -1.763641E+02 
 3.501977E-03 -1.632157E+02  9.696204E-01 -6.305283E+01  5.317279E-03 1.651405E+02 
 2.496146E-03 -1.762585E+02  5.325871E-03 1.654425E+02  9.685768E-01 -6.389402E+01 
1.620312500E+03  9.638571E-01 -9.824672E+01  3.511281E-03 -1.635477E+02  2.538792E-03 -1.771594E+02 
 3.512785E-03 -1.638462E+02  9.703322E-01 -6.307109E+01  4.901293E-03 1.669062E+02 
 2.539446E-03 -1.767587E+02  4.886753E-03 1.668704E+02  9.688015E-01 -6.390464E+01 
1.620625000E+03  9.636960E-01 -9.826708E+01  3.537849E-03 -1.633420E+02  2.532802E-03 -1.766147E+02 
 3.522195E-03 -1.634375E+02  9.707544E-01 -6.308177E+01  4.706895E-03 1.674348E+02 
 2.534651E-03 -1.759442E+02  4.721102E-03 1.675883E+02  9.691130E-01 -6.391870E+01 
1.620937500E+03  9.639135E-01 -9.828527E+01  3.611610E-03 -1.629869E+02  2.595763E-03 -1.758527E+02 
 3.583483E-03 -1.631851E+02  9.708248E-01 -6.309618E+01  4.453726E-03 1.686750E+02 
 2.587071E-03 -1.757768E+02  4.450224E-03 1.685044E+02  9.696060E-01 -6.393995E+01 
1.621250000E+03  9.637324E-01 -9.831785E+01  3.684804E-03 -1.641427E+02  2.627554E-03 -1.766869E+02 
 3.692776E-03 -1.643683E+02  9.712234E-01 -6.311286E+01  4.295892E-03 1.710535E+02 
 2.643277E-03 -1.762195E+02  4.304035E-03 1.710905E+02  9.698045E-01 -6.397230E+01 
1.621562500E+03  9.639508E-01 -9.833072E+01  3.704723E-03 -1.658760E+02  2.635890E-03 -1.764621E+02 
 3.700008E-03 -1.656795E+02  9.713301E-01 -6.315007E+01  4.339792E-03 1.720233E+02 
 2.643195E-03 -1.771207E+02  4.325550E-03 1.719435E+02  9.697919E-01 -6.401126E+01 
1.621875000E+03  9.638483E-01 -9.837073E+01  3.685033E-03 -1.660198E+02  2.616698E-03 -1.772093E+02 
 3.689875E-03 -1.657718E+02  9.716333E-01 -6.317369E+01  4.223011E-03 1.722132E+02 
 2.622832E-03 -1.766947E+02  4.240630E-03 1.723705E+02  9.700421E-01 -6.403889E+01 
1.622187500E+03  9.637573E-01 -9.838571E+01  3.698207E-03 -1.659723E+02  2.614762E-03 -1.769532E+02 
 3.689560E-03 -1.657963E+02  9.717998E-01 -6.320453E+01  4.132927E-03 1.735857E+02 
 2.623139E-03 -1.765408E+02  4.133172E-03 1.734736E+02  9.700288E-01 -6.407773E+01 
1.622500000E+03  9.636305E-01 -9.840728E+01  3.802969E-03 -1.657424E+02  2.650509E-03 -1.755776E+02 
 3.800001E-03 -1.657640E+02  9.715732E-01 -6.322445E+01  4.102504E-03 1.754520E+02 
 2.666425E-03 -1.757752E+02  4.124148E-03 1.753928E+02  9.701573E-01 -6.410553E+01 
1.622812500E+03  9.638433E-01 -9.842772E+01  3.894431E-03 -1.668811E+02  2.704995E-03 -1.763644E+02 
 3.873608E-03 -1.672066E+02  9.717636E-01 -6.325321E+01  4.190822E-03 1.763885E+02 
 2.696850E-03 -1.759575E+02  4.204643E-03 1.764445E+02  9.700695E-01 -6.414596E+01 
1.623125000E+03  9.640430E-01 -9.844116E+01  3.896613E-03 -1.682293E+02  2.733438E-03 -1.769975E+02 
 3.909833E-03 -1.682299E+02  9.715231E-01 -6.327252E+01  4.235662E-03 1.755426E+02 
 2.733025E-03 -1.763061E+02  4.231023E-03 1.753581E+02  9.697828E-01 -6.416670E+01 
1.623437500E+03  9.645753E-01 -9.846235E+01  3.949914E-03 -1.702620E+02  2.723076E-03 -1.775695E+02 
 3.933555E-03 -1.699623E+02  9.715375E-01 -6.331545E+01  4.225680E-03 1.758046E+02 
 2.731100E-03 -1.774657E+02  4.256535E-03 1.756428E+02  9.696527E-01 -6.418664E+01 
1.623750000E+03  9.650175E-01 -9.849274E+01  3.915077E-03 -1.716984E+02  2.685408E-03 -1.784829E+02 
 3.908360E-03 -1.720659E+02  9.715330E-01 -6.335388E+01  4.330884E-03 1.741470E+02 
 2.668706E-03 -1.778138E+02  4.348997E-03 1.741245E+02  9.697275E-01 -6.421813E+01 
1.624062500E+03  9.651615E-01 -9.853176E+01  3.779919E-03 -1.730075E+02  2.637804E-03 -1.779350E+02 
 3.796806E-03 -1.727406E+02  9.713212E-01 -6.335935E+01  4.204055E-03 1.714189E+02 
 2.624860E-03 -1.778639E+02  4.204524E-03 1.715676E+02  9.695512E-01 -6.424413E+01 
1.624375000E+03  9.655249E-01 -9.857924E+01  3.736736E-03 -1.721959E+02  2.642138E-03 -1.768148E+02 
 3.725518E-03 -1.724610E+02  9.711448E-01 -6.338288E+01  4.013217E-03 1.707907E+02 
 2.655045E-03 -1.762992E+02  4.009382E-03 1.706902E+02  9.696805E-01 -6.425379E+01 
1.624687500E+03  9.656900E-01 -9.860774E+01  3.782126E-03 -1.722686E+02  2.652058E-03 -1.756856E+02 
 3.751401E-03 -1.722666E+02  9.712032E-01 -6.340662E+01  3.950623E-03 1.720675E+02 
 2.673942E-03 -1.758725E+02  3.967474E-03 1.721498E+02  9.696322E-01 -6.428419E+01 
1.625000000E+03  9.659442E-01 -9.865223E+01  3.736155E-03 -1.727679E+02  2.666702E-03 -1.767614E+02 
 3.743255E-03 -1.731504E+02  9.710390E-01 -6.342864E+01  3.927324E-03 1.702145E+02 
 2.680665E-03 -1.768680E+02  3.921629E-03 1.703190E+02  9.695328E-01 -6.430586E+01 
1.625312500E+03  9.659156E-01 -9.869727E+01  3.709834E-03 -1.732557E+02  2.610513E-03 -1.760872E+02 
 3.701449E-03 -1.729594E+02  9.711128E-01 -6.343955E+01  3.700451E-03 1.693835E+02 
 2.583639E-03 -1.758514E+02  3.718924E-03 1.696371E+02  9.695943E-01 -6.432636E+01 
1.625625000E+03  9.659153E-01 -9.875195E+01  3.711686E-03 -1.733785E+02  2.633802E-03 -1.745651E+02 
 3.714472E-03 -1.731361E+02  9.714151E-01 -6.346805E+01  3.496594E-03 1.718930E+02 
 2.599214E-03 -1.742374E+02  3.517254E-03 1.717662E+02  9.698713E-01 -6.435090E+01 
1.625937500E+03  9.661069E-01 -9.879952E+01  3.685434E-03 -1.733977E+02  2.641223E-03 -1.736242E+02 
 3.704155E-03 -1.734434E+02  9.713458E-01 -6.349375E+01  3.508690E-03 1.735508E+02 
 2.610671E-03 -1.735731E+02  3.519590E-03 1.737592E+02  9.700284E-01 -6.439477E+01 
1.626250000E+03  9.661683E-01 -9.884092E+01  3.681001E-03 -1.732943E+02  2.672784E-03 -1.719863E+02 
 3.670356E-03 -1.733992E+02  9.713430E-01 -6.350643E+01  3.460886E-03 1.734249E+02 
 2.684203E-03 -1.714760E+02  3.483811E-03 1.734709E+02  9.698786E-01 -6.441639E+01 
1.626562500E+03  9.662172E-01 -9.888880E+01  3.732660E-03 -1.737969E+02  2.709587E-03 -1.713402E+02 
 3.720394E-03 -1.736599E+02  9.714685E-01 -6.353529E+01  3.372528E-03 1.750620E+02 
 2.738518E-03 -1.708903E+02  3.389106E-03 1.748606E+02  9.700729E-01 -6.445140E+01 
1.626875000E+03  9.661316E-01 -9.891791E+01  3.716778E-03 -1.747838E+02  2.791461E-03 -1.711067E+02 
 3.709612E-03 -1.747725E+02  9.714765E-01 -6.355734E+01  3.378879E-03 1.780065E+02 
 2.788968E-03 -1.711256E+02  3.368126E-03 1.781973E+02  9.700889E-01 -6.448098E+01 
1.627187500E+03  9.661351E-01 -9.896211E+01  3.665448E-03 -1.752441E+02  2.837629E-03 -1.707526E+02 
 3.657912E-03 -1.755826E+02  9.713760E-01 -6.358883E+01  3.521877E-03 1.785065E+02 
 2.842284E-03 -1.708279E+02  3.528634E-03 1.790166E+02  9.699863E-01 -6.449883E+01 
1.627500000E+03  9.661757E-01 -9.901625E+01  3.622800E-03 -1.748601E+02  2.914672E-03 -1.699338E+02 
 3.589327E-03 -1.747943E+02  9.716454E-01 -6.360506E+01  3.544262E-03 1.781405E+02 
 2.900922E-03 -1.701293E+02  3.563206E-03 1.781202E+02  9.698949E-01 -6.453456E+01 
1.627812500E+03  9.662182E-01 -9.904488E+01  3.621924E-03 -1.744148E+02  2.991670E-03 -1.701154E+02 
 3.639209E-03 -1.743180E+02  9.715039E-01 -6.362296E+01  3.611997E-03 1.786522E+02 
 2.989733E-03 -1.701707E+02  3.617684E-03 1.783081E+02  9.698881E-01 -6.455595E+01 
1.628125000E+03  9.662987E-01 -9.908650E+01  3.636365E-03 -1.746243E+02  3.051974E-03 -1.716086E+02 
 3.645997E-03 -1.748961E+02  9.713434E-01 -6.366394E+01  3.698799E-03 1.770289E+02 
 3.069201E-03 -1.716176E+02  3.712595E-03 1.771351E+02  9.697512E-01 -6.458656E+01 
1.628437500E+03  9.661086E-01 -9.910955E+01  3.589833E-03 -1.749997E+02  3.050395E-03 -1.721635E+02 
 3.572800E-03 -1.748100E+02  9.709704E-01 -6.369077E+01  3.729102E-03 1.745343E+02 
 3.045901E-03 -1.722366E+02  3.746840E-03 1.742649E+02  9.695033E-01 -6.459724E+01 
1.628750000E+03  9.660202E-01 -9.915639E+01  3.613759E-03 -1.744754E+02  3.086060E-03 -1.717831E+02 
 3.614048E-03 -1.743447E+02  9.708270E-01 -6.370222E+01  3.565277E-03 1.712995E+02 
 3.097094E-03 -1.717775E+02  3.577149E-03 1.712668E+02  9.693408E-01 -6.460026E+01 
1.629062500E+03  9.662022E-01 -9.918223E+01  3.619794E-03 -1.745702E+02  3.123763E-03 -1.729660E+02 
 3.636959E-03 -1.745511E+02  9.708973E-01 -6.372300E+01  3.398307E-03 1.723374E+02 
 3.110924E-03 -1.726237E+02  3.427862E-03 1.719697E+02  9.695520E-01 -6.462380E+01 
1.629375000E+03  9.662734E-01 -9.921569E+01  3.604880E-03 -1.745099E+02  3.108796E-03 -1.735424E+02 
 3.594143E-03 -1.741664E+02  9.707963E-01 -6.374697E+01  3.377694E-03 1.714566E+02 
 3.130492E-03 -1.731674E+02  3.369671E-03 1.712818E+02  9.695668E-01 -6.463450E+01 
1.629687500E+03  9.662877E-01 -9.927272E+01  3.632768E-03 -1.740400E+02  3.101181E-03 -1.731856E+02 
 3.609146E-03 -1.739291E+02  9.706797E-01 -6.376995E+01  3.324135E-03 1.699929E+02 
 3.109147E-03 -1.732085E+02  3.294839E-03 1.703271E+02  9.695144E-01 -6.467603E+01 
1.630000000E+03  9.659454E-01 -9.931654E+01  3.677765E-03 -1.740615E+02  3.131728E-03 -1.726583E+02 
 3.664882E-03 -1.742058E+02  9.706072E-01 -6.379338E+01  3.110322E-03 1.684395E+02 
 3.149779E-03 -1.726947E+02  3.140816E-03 1.685346E+02  9.694812E-01 -6.470148E+01 
1.630312500E+03  9.659110E-01 -9.936273E+01  3.707815E-03 -1.746286E+02  3.167309E-03 -1.729577E+02 
 3.685188E-03 -1.749030E+02  9.707841E-01 -6.381268E+01  2.914465E-03 1.681018E+02 
 3.178303E-03 -1.726226E+02  2.915459E-03 1.678582E+02  9.695371E-01 -6.471775E+01 
1.630625000E+03  9.658012E-01 -9.940319E+01  3.741913E-03 -1.751241E+02  3.207787E-03 -1.726415E+02 
 3.716442E-03 -1.750190E+02  9.704919E-01 -6.382591E+01  2.665303E-03 1.693026E+02 
 3.212421E-03 -1.728917E+02  2.691763E-03 1.689647E+02  9.697130E-01 -6.475152E+01 
1.630937500E+03  9.658418E-01 -9.944821E+01  3.766951E-03 -1.761841E+02  3.237015E-03 -1.726535E+02 
 3.739739E-03 -1.760071E+02  9.711021E-01 -6.384083E+01  2.483613E-03 1.732925E+02 
 3.238199E-03 -1.728691E+02  2.464537E-03 1.732637E+02  9.696850E-01 -6.476313E+01 
1.631250000E+03  9.654876E-01 -9.947968E+01  3.749542E-03 -1.771699E+02  3.285473E-03 -1.731473E+02 
 3.744833E-03 -1.769398E+02  9.713553E-01 -6.387284E+01  2.446705E-03 1.777995E+02 
 3.295560E-03 -1.732550E+02  2.454249E-03 1.776140E+02  9.698517E-01 -6.478489E+01 
1.631562500E+03  9.655202E-01 -9.950862E+01  3.684947E-03 -1.773311E+02  3.310986E-03 -1.735045E+02 
 3.707070E-03 -1.778093E+02  9.712884E-01 -6.389909E+01  2.468194E-03 -1.788059E+02 
 3.336949E-03 -1.736962E+02  2.465432E-03 -1.783944E+02  9.699325E-01 -6.481725E+01 
1.631875000E+03  9.655756E-01 -9.955216E+01  3.686466E-03 -1.776339E+02  3.350497E-03 -1.736778E+02 
 3.688699E-03 -1.776259E+02  9.714189E-01 -6.393298E+01  2.434872E-03 -1.768547E+02 
 3.349332E-03 -1.735649E+02  2.438593E-03 -1.765877E+02  9.697218E-01 -6.484075E+01 
1.632187500E+03  9.654286E-01 -9.960933E+01  3.664983E-03 -1.782822E+02  3.430675E-03 -1.742246E+02 
 3.659424E-03 -1.779496E+02  9.715025E-01 -6.395305E+01  2.440252E-03 -1.731109E+02 
 3.410555E-03 -1.740573E+02  2.438486E-03 -1.727674E+02  9.697269E-01 -6.486554E+01 
1.632500000E+03  9.653541E-01 -9.964878E+01  3.615946E-03 -1.786329E+02  3.426848E-03 -1.750451E+02 
 3.638184E-03 -1.788522E+02  9.715979E-01 -6.398809E+01  2.505728E-03 -1.704141E+02 
 3.401017E-03 -1.750123E+02  2.494503E-03 -1.707295E+02  9.697538E-01 -6.489995E+01 
1.632812500E+03  9.649851E-01 -9.970655E+01  3.592832E-03 -1.787737E+02  3.415675E-03 -1.754024E+02 
 3.607872E-03 -1.785369E+02  9.711656E-01 -6.400606E+01  2.531332E-03 -1.697052E+02 
 3.449589E-03 -1.752997E+02  2.556303E-03 -1.697144E+02  9.697401E-01 -6.491945E+01 
1.633125000E+03  9.647291E-01 -9.975451E+01  3.582573E-03 -1.788401E+02  3.462752E-03 -1.753718E+02 
 3.555270E-03 -1.781818E+02  9.712086E-01 -6.400804E+01  2.566910E-03 -1.679411E+02 
 3.482192E-03 -1.755687E+02  2.567112E-03 -1.676734E+02  9.697000E-01 -6.493181E+01 
1.633437500E+03  9.642017E-01 -9.979977E+01  3.554780E-03 -1.786956E+02  3.510567E-03 -1.762998E+02 
 3.548957E-03 -1.787599E+02  9.715771E-01 -6.402863E+01  2.619222E-03 -1.670346E+02 
 3.501078E-03 -1.764418E+02  2.618104E-03 -1.669068E+02  9.696894E-01 -6.494546E+01 
1.633750000E+03  9.636790E-01 -9.984461E+01  3.506875E-03 -1.783999E+02  3.527174E-03 -1.770487E+02 
 3.511326E-03 -1.786692E+02  9.717558E-01 -6.403799E+01  2.593749E-03 -1.656787E+02 
 3.532720E-03 -1.771449E+02  2.563982E-03 -1.659249E+02  9.698292E-01 -6.496533E+01 
1.634062500E+03  9.632102E-01 -9.987622E+01  3.535389E-03 -1.787629E+02  3.517644E-03 -1.776853E+02 