! Matrix data file written by TouchstoneData, EPCOS AG
! FILENAME: "ansys_B4404_02_WB_DOWN25.s4p"
! COMMENT: "(B4404_02_WB_DOWN25.s4p) EPCOS AG 4/20/2013"
! INFO: nport=4, nfreq=1601
! DATE: "Fri Jun 21 16:19:05 2013"
! USER: "Sergey Rostovtsev"
!
! port | pin | signal
! -----|-----|--------
!   1  |  3  |  TX in
!   2  |  6  |  Ant in/out
!   3  |  8  |  RX out1
!   4  |  1  |  RX out2
! --------------------
! 
# MHZ S MA R 50
! freq  magS11 angS11  magS12 angS12  magS13 angS13  magS14 angS14  ...
9.834375000E+01  1.000922E+00 -1.528955E+01  2.146791E-03 7.563430E+01  6.050725E-06 8.622755E+01  2.072893E-05 -1.324005E+02 
 2.141141E-03 7.628087E+01  9.994814E-01 -1.466749E+01  8.994421E-05 7.057507E+01  1.564605E-04 7.595412E+01 
 1.777517E-05 -1.501834E+02  7.308884E-05 9.041010E+01  9.995398E-01 -7.862800E+00  7.694733E-03 8.221542E+01 
 7.097247E-05 -1.126164E+02  1.558555E-04 7.866790E+01  7.692662E-03 8.168667E+01  1.001783E+00 -7.399272E+00 
1.020625000E+02  1.000266E+00 -1.583887E+01  2.227277E-03 7.465016E+01  1.945367E-05 8.832447E+01  2.381431E-06 2.571483E+01 
 2.214376E-03 7.502257E+01  1.000216E+00 -1.520788E+01  7.658071E-05 7.273527E+01  1.406806E-04 8.898725E+01 
 2.597200E-05 2.723645E+01  1.344180E-04 7.580458E+01  9.996921E-01 -8.039052E+00  8.112939E-03 8.152055E+01 
 2.224394E-05 -3.496459E+01  1.215793E-04 8.129458E+01  8.129325E-03 8.098295E+01  1.000433E+00 -7.635396E+00 
1.057812500E+02  9.990512E-01 -1.645989E+01  2.228158E-03 7.362123E+01  1.498083E-05 -1.013984E+02  1.942025E-05 1.465661E+02 
 2.227886E-03 7.398085E+01  9.985282E-01 -1.574491E+01  1.324130E-04 1.028134E+02  1.791239E-04 8.293398E+01 
 3.712976E-05 -1.713785E+02  9.812817E-05 1.041368E+02  9.996017E-01 -8.350919E+00  8.378760E-03 8.062162E+01 
 1.114257E-05 1.159534E+02  1.831082E-04 7.129435E+01  8.349842E-03 8.030300E+01  1.001646E+00 -7.895935E+00 
1.095000000E+02  9.993302E-01 -1.699610E+01  2.367408E-03 7.354286E+01  2.065249E-05 -1.352787E+01  2.546168E-05 1.066818E+02 
 2.319103E-03 7.397181E+01  9.984612E-01 -1.626721E+01  1.559775E-04 8.441682E+01  1.881296E-04 7.722284E+01 
 2.099414E-05 1.159790E+02  1.878212E-04 9.600036E+01  9.989993E-01 -8.705235E+00  8.580015E-03 8.110255E+01 
 4.608446E-06 -9.624103E+01  2.097741E-04 8.357114E+01  8.547239E-03 8.089124E+01  1.001354E+00 -8.183230E+00 
1.132187500E+02  9.987392E-01 -1.761595E+01  2.508392E-03 7.315048E+01  2.758840E-05 -5.088944E+01  1.353323E-05 1.325490E+02 
 2.517716E-03 7.345422E+01  9.976773E-01 -1.689677E+01  1.393513E-04 7.418973E+01  1.671451E-04 8.632930E+01 
 3.279061E-05 5.161940E+01  1.722654E-04 6.407901E+01  9.998050E-01 -8.927560E+00  9.015582E-03 8.106873E+01 
 5.091083E-06 -9.901916E+01  1.733172E-04 7.855204E+01  8.988531E-03 8.082514E+01  1.001964E+00 -8.493195E+00 
1.169375000E+02  9.997685E-01 -1.814377E+01  2.511002E-03 7.183791E+01  4.516144E-07 -9.387941E+01  2.272245E-05 -1.303895E+02 
 2.516323E-03 7.207241E+01  9.952442E-01 -1.744685E+01  1.295799E-04 7.893624E+01  1.998851E-04 8.190455E+01 
 2.596834E-05 1.418191E+02  1.338749E-04 8.563152E+01  9.988486E-01 -9.268749E+00  9.348521E-03 7.990821E+01 
 1.760821E-05 1.603379E+02  1.910162E-04 7.475960E+01  9.331591E-03 7.980335E+01  1.000860E+00 -8.821849E+00 
1.206562500E+02  9.987763E-01 -1.868840E+01  2.672869E-03 7.179568E+01  2.736246E-05 -1.699129E+01  3.047498E-05 -6.624060E+01 
 2.648874E-03 7.169850E+01  9.971584E-01 -1.805213E+01  8.468497E-05 7.298117E+01  1.595227E-04 8.329121E+01 
 4.403233E-05 -3.032672E+00  8.318186E-05 7.220929E+01  9.984437E-01 -9.575073E+00  9.447508E-03 7.944954E+01 
 4.072575E-05 -2.967955E+01  1.494646E-04 8.628099E+01  9.464857E-03 7.944473E+01  9.999709E-01 -9.046952E+00 
1.243750000E+02  9.986356E-01 -1.920825E+01  2.695506E-03 7.194952E+01  1.876437E-05 -2.285647E+01  2.698675E-05 3.111523E+01 
 2.652531E-03 7.128175E+01  9.948221E-01 -1.854205E+01  1.527056E-04 1.047557E+02  2.149466E-04 7.905346E+01 
 3.709201E-05 5.699445E+01  1.589770E-04 9.368473E+01  9.998108E-01 -9.870350E+00  9.580214E-03 7.976923E+01 
 2.350442E-05 9.598367E+01  1.837033E-04 7.901802E+01  9.577306E-03 7.965663E+01  9.997388E-01 -9.381726E+00 
1.280937500E+02  9.985627E-01 -1.984777E+01  2.720723E-03 6.944225E+01  3.714816E-05 -1.259365E+02  1.407151E-05 9.414363E+01 
 2.692412E-03 6.940225E+01  9.950364E-01 -1.907648E+01  1.494382E-04 8.093208E+01  2.215748E-04 7.400446E+01 
 1.590119E-05 -1.226837E+02  1.716512E-04 8.701283E+01  9.996245E-01 -1.014086E+01  1.010085E-02 8.017607E+01 
 1.360681E-05 -7.036126E+01  2.261721E-04 6.596369E+01  1.004713E-02 8.003162E+01  9.995505E-01 -9.557402E+00 
1.318125000E+02  9.983603E-01 -2.046952E+01  2.830625E-03 7.073919E+01  6.353614E-06 -8.746277E+01  2.820228E-05 1.157443E+02 
 2.824307E-03 7.089611E+01  9.950482E-01 -1.963884E+01  1.381721E-04 7.816702E+01  1.932267E-04 7.369483E+01 
 4.610747E-05 1.448953E+02  1.460519E-04 7.711480E+01  9.987286E-01 -1.054894E+01  1.043328E-02 7.885460E+01 
 6.585345E-06 -1.358659E+02  2.277282E-04 7.969140E+01  1.040246E-02 7.873665E+01  9.984657E-01 -9.937644E+00 
1.355312500E+02  9.978989E-01 -2.090595E+01  2.956804E-03 6.873986E+01  1.481323E-05 -3.762939E+01  3.920300E-05 3.219542E+01 
 2.971798E-03 6.896057E+01  9.943090E-01 -2.009637E+01  2.007621E-04 6.247245E+01  2.270865E-04 7.050283E+01 
 3.724036E-05 -1.302878E+01  2.070250E-04 5.277064E+01  9.983153E-01 -1.077650E+01  1.063305E-02 7.817164E+01 
 4.971095E-05 -3.191538E+01  2.513932E-04 7.814479E+01  1.066465E-02 7.783271E+01  9.978192E-01 -1.009764E+01 
1.392500000E+02  9.971078E-01 -2.144232E+01  3.055821E-03 7.034371E+01  4.772594E-05 -1.225942E+02  3.218560E-05 -7.448598E+01 
 3.036313E-03 7.063240E+01  9.924296E-01 -2.064894E+01  1.621053E-04 9.179026E+01  2.380929E-04 7.658759E+01 
 3.755260E-05 -1.758670E+02  1.758408E-04 7.985933E+01  9.981319E-01 -1.103103E+01  1.081470E-02 7.820146E+01 
 3.369917E-05 -1.431942E+02  2.247566E-04 8.140023E+01  1.080071E-02 7.802975E+01  9.968929E-01 -1.039813E+01 
1.429687500E+02  9.971179E-01 -2.200717E+01  3.095664E-03 6.858410E+01  2.716187E-05 9.180736E+01  5.770450E-06 1.767290E+01 
 3.094426E-03 6.868275E+01  9.935503E-01 -2.115688E+01  1.883457E-04 5.488557E+01  2.494139E-04 6.499956E+01 
 2.498203E-05 1.447754E+02  1.524618E-04 4.806437E+01  9.977690E-01 -1.133630E+01  1.089874E-02 7.797865E+01 
 3.799187E-05 -8.178582E+01  2.653044E-04 6.257339E+01  1.090958E-02 7.781666E+01  9.966596E-01 -1.070987E+01 
1.466875000E+02  9.971266E-01 -2.261120E+01  3.170283E-03 6.958980E+01  2.330385E-05 -4.421133E+01  3.601023E-05 -1.711279E+02 
 3.125078E-03 6.919150E+01  9.927797E-01 -2.171201E+01  2.026015E-04 6.647091E+01  2.514999E-04 7.935593E+01 
 1.220526E-05 6.040412E+01  1.767258E-04 7.598698E+01  9.980973E-01 -1.159716E+01  1.139214E-02 7.806400E+01 
 3.770916E-05 1.329636E+02  2.284793E-04 7.943572E+01  1.137319E-02 7.799779E+01  9.969551E-01 -1.095040E+01 
1.504062500E+02  9.967453E-01 -2.315822E+01  3.128874E-03 6.678877E+01  5.908172E-05 -7.252101E+01  5.541491E-05 -9.730351E+01 
 3.154434E-03 6.592004E+01  9.931909E-01 -2.225470E+01  1.191656E-04 9.887499E+01  2.015833E-04 6.900298E+01 
 2.073867E-05 5.813179E+01  1.202696E-04 1.033825E+02  9.971611E-01 -1.189769E+01  1.177330E-02 7.790603E+01 
 4.594162E-05 -4.412623E+01  2.017242E-04 7.033003E+01  1.174877E-02 7.761075E+01  9.956307E-01 -1.122247E+01 
1.541250000E+02  9.957443E-01 -2.369243E+01  3.264164E-03 6.862656E+01  3.091004E-05 -1.220581E+02  1.996520E-05 -1.678340E+02 
 3.225252E-03 6.831951E+01  9.932191E-01 -2.270856E+01  1.218772E-04 8.774127E+01  2.498803E-04 8.090018E+01 
 2.857303E-05 1.208658E+02  1.474547E-04 9.358071E+01  9.986861E-01 -1.221228E+01  1.202025E-02 7.694493E+01 
 3.490633E-05 -1.482356E+02  2.328260E-04 7.568109E+01  1.203482E-02 7.694223E+01  9.948208E-01 -1.155305E+01 
1.578437500E+02  9.956209E-01 -2.426106E+01  3.322524E-03 6.518549E+01  2.512112E-05 9.846980E+01  3.713546E-05 3.907729E+01 
 3.308457E-03 6.510918E+01  9.915730E-01 -2.325194E+01  2.064528E-04 7.714576E+01  2.064285E-04 6.376102E+01 
 1.434404E-05 1.001539E+02  1.794997E-04 9.109002E+01  9.971965E-01 -1.248416E+01  1.213926E-02 7.657915E+01 
 2.792043E-05 8.359308E+01  2.371324E-04 6.788846E+01  1.210256E-02 7.643976E+01  9.944512E-01 -1.178997E+01 
1.615625000E+02  9.948594E-01 -2.466793E+01  3.347336E-03 6.573191E+01  2.940242E-05 1.300128E+02  3.398519E-06 -1.426627E+02 
 3.364761E-03 6.610786E+01  9.907373E-01 -2.376047E+01  1.598990E-04 6.819653E+01  2.375545E-04 6.687567E+01 
 4.097156E-05 1.162450E+02  1.449890E-04 6.922832E+01  9.970327E-01 -1.275656E+01  1.235095E-02 7.708019E+01 
 1.731954E-05 -2.639485E+01  2.632285E-04 6.529061E+01  1.235563E-02 7.668370E+01  9.934308E-01 -1.207884E+01 
1.652812500E+02  9.967747E-01 -2.523794E+01  3.506260E-03 6.529761E+01  4.469594E-05 -1.153927E+02  3.991414E-05 -1.208538E+02 
 3.455628E-03 6.538210E+01  9.913719E-01 -2.426853E+01  1.928188E-04 7.419830E+01  1.922666E-04 6.579686E+01 
 3.120168E-05 7.809767E+01  1.547161E-04 8.142602E+01  9.962400E-01 -1.294014E+01  1.276344E-02 7.657182E+01 
 3.860613E-05 -1.437352E+02  2.021527E-04 7.126172E+01  1.277964E-02 7.639338E+01  9.935533E-01 -1.230296E+01 
1.690000000E+02  9.967948E-01 -2.571278E+01  3.606061E-03 6.495283E+01  2.344637E-05 -1.506183E+02  3.908477E-05 1.769013E+02 
 3.563469E-03 6.512733E+01  9.917940E-01 -2.486812E+01  1.854244E-04 6.556715E+01  2.431455E-04 8.319686E+01 
 3.139655E-05 -5.884304E+01  2.306516E-04 6.984375E+01  9.968930E-01 -1.320083E+01  1.286143E-02 7.594009E+01 
 8.219252E-06 1.511585E+02  2.561565E-04 7.716874E+01  1.286506E-02 7.559069E+01  9.932876E-01 -1.256219E+01 
1.727187500E+02  9.971483E-01 -2.630241E+01  3.676033E-03 6.494635E+01  2.874039E-05 1.667587E+02  2.605553E-05 -8.859983E+01 
 3.631519E-03 6.497538E+01  9.923567E-01 -2.529283E+01  1.493194E-04 6.977676E+01  2.435364E-04 6.914413E+01 
 1.928798E-05 4.731212E+01  1.727988E-04 7.627972E+01  9.975497E-01 -1.343527E+01  1.308266E-02 7.646225E+01 
 3.146010E-05 -4.231305E+01  2.328777E-04 6.928901E+01  1.306584E-02 7.643830E+01  9.925787E-01 -1.282706E+01 
1.764375000E+02  9.966638E-01 -2.677994E+01  3.676973E-03 6.439851E+01  1.937830E-05 -4.807608E+01  1.753587E-05 1.370300E+02 
 3.705131E-03 6.403691E+01  9.924771E-01 -2.580275E+01  1.725776E-04 7.542599E+01  2.193236E-04 7.333412E+01 
 1.643362E-05 9.272995E+01  1.779461E-04 6.898411E+01  9.979975E-01 -1.373271E+01  1.359891E-02 7.653275E+01 
 2.121692E-05 1.758500E+02  2.617741E-04 7.695175E+01  1.359256E-02 7.650006E+01  9.925674E-01 -1.302909E+01 
1.801562500E+02  9.972931E-01 -2.737663E+01  3.758693E-03 6.509123E+01  2.652786E-05 -3.113905E+00  2.030756E-05 6.721987E+01 
 3.733571E-03 6.479325E+01  9.926618E-01 -2.630320E+01  1.417391E-04 7.253127E+01  2.338658E-04 6.217768E+01 
 2.603093E-05 2.260241E+01  1.556970E-04 8.213060E+01  9.978350E-01 -1.399846E+01  1.392955E-02 7.551252E+01 
 8.223042E-06 3.841382E+01  2.248307E-04 7.247394E+01  1.387579E-02 7.550755E+01  9.924745E-01 -1.328443E+01 
1.838750000E+02  9.951026E-01 -2.790707E+01  3.803445E-03 6.356781E+01  1.317641E-05 3.780991E+01  1.065502E-05 -8.144209E+01 
 3.774146E-03 6.349903E+01  9.924352E-01 -2.688554E+01  1.872562E-04 8.328064E+01  2.722484E-04 6.311687E+01 
 3.452285E-05 9.072001E+01  1.731139E-04 7.412185E+01  9.992455E-01 -1.425679E+01  1.401078E-02 7.499961E+01 
 2.170954E-05 -1.179400E+01  2.676123E-04 5.993145E+01  1.400655E-02 7.497840E+01  9.941347E-01 -1.363419E+01 
1.875937500E+02  9.980771E-01 -2.834729E+01  3.892713E-03 6.278794E+01  4.099760E-05 -9.804514E+01  1.596870E-05 -2.650664E+01 
 3.823960E-03 6.317000E+01  9.929479E-01 -2.732975E+01  9.537585E-05 7.538517E+01  2.941115E-04 7.754626E+01 
 3.155464E-05 6.209203E+01  1.234278E-04 7.466057E+01  9.973067E-01 -1.448253E+01  1.451112E-02 7.489414E+01 
 1.150523E-05 -1.181811E+02  2.877485E-04 6.825348E+01  1.457133E-02 7.475669E+01  9.916737E-01 -1.383136E+01 
1.913125000E+02  9.972271E-01 -2.890591E+01  3.965177E-03 6.177991E+01  1.382701E-05 1.740350E+02  2.288557E-05 1.770320E+02 
 3.912906E-03 6.193195E+01  9.931492E-01 -2.787927E+01  1.561712E-04 6.918787E+01  2.863707E-04 7.504708E+01 
 1.066698E-05 1.236431E+02  1.847466E-04 7.443297E+01  9.990552E-01 -1.470798E+01  1.460123E-02 7.450569E+01 
 3.756342E-05 -1.372463E+02  2.919794E-04 8.020733E+01  1.461462E-02 7.484633E+01  9.928787E-01 -1.406543E+01 
1.950312500E+02  9.977118E-01 -2.946307E+01  4.099722E-03 6.137805E+01  4.367114E-05 -1.731008E+02  3.158407E-05 1.322785E+02 
 4.097716E-03 6.195744E+01  9.934340E-01 -2.841721E+01  2.189589E-04 9.112555E+01  2.506851E-04 7.348327E+01 
 3.143173E-05 1.518534E+02  2.122915E-04 9.232959E+01  9.977503E-01 -1.501992E+01  1.480170E-02 7.494769E+01 
 5.489564E-06 1.067694E+02  3.205071E-04 7.906734E+01  1.481309E-02 7.477537E+01  9.944400E-01 -1.444372E+01 
1.987500000E+02  9.983237E-01 -2.996217E+01  4.103482E-03 5.955396E+01  4.580735E-05 -1.684051E+02  2.672199E-05 1.261000E+02 
 4.091897E-03 5.991218E+01  9.941996E-01 -2.897927E+01  1.625091E-04 7.954307E+01  2.784865E-04 7.226304E+01 
 3.839226E-05 -1.525523E+02  1.918422E-04 6.142701E+01  9.981378E-01 -1.531381E+01  1.517704E-02 7.466487E+01 
 2.600052E-05 -4.061760E+01  2.551115E-04 7.406261E+01  1.517979E-02 7.461942E+01  9.925986E-01 -1.472877E+01 
2.024687500E+02  9.976133E-01 -3.050289E+01  4.221918E-03 6.133957E+01  2.907238E-05 -1.552752E+01  1.761869E-05 1.349476E+02 
 4.197316E-03 6.120375E+01  9.936724E-01 -2.946570E+01  1.829221E-04 8.140991E+01  3.014814E-04 6.868223E+01 
 7.548891E-06 -3.257758E+01  2.022590E-04 8.468089E+01  9.979569E-01 -1.557652E+01  1.551116E-02 7.312266E+01 
 2.903292E-05 -1.725677E+02  3.094610E-04 6.765254E+01  1.553564E-02 7.292168E+01  9.934348E-01 -1.500900E+01 
2.061875000E+02  9.962012E-01 -3.101191E+01  4.285309E-03 5.995792E+01  1.647124E-05 -4.979890E+01  2.833604E-05 -1.048488E+02 
 4.253125E-03 5.980877E+01  9.952368E-01 -3.000165E+01  1.872037E-04 6.068471E+01  2.890141E-04 7.146351E+01 
 1.710132E-05 -1.603770E+02  2.265348E-04 7.370306E+01  9.989913E-01 -1.591672E+01  1.540252E-02 7.296959E+01 
 3.435640E-05 1.766584E+02  2.644279E-04 7.695022E+01  1.538028E-02 7.293775E+01  9.944057E-01 -1.521506E+01 
2.099062500E+02  9.988139E-01 -3.148094E+01  4.359162E-03 6.031754E+01  2.441735E-05 3.805101E+01  1.856805E-05 -2.284954E+01 
 4.315081E-03 6.065896E+01  9.954559E-01 -3.043546E+01  2.253857E-04 5.408071E+01  3.041539E-04 6.908178E+01 
 1.707254E-05 -5.331008E+01  2.097396E-04 6.004723E+01  9.984945E-01 -1.604550E+01  1.560950E-02 7.417132E+01 
 2.471367E-05 -1.777612E+02  2.907957E-04 6.782677E+01  1.565824E-02 7.400320E+01  9.941580E-01 -1.536937E+01 
2.136250000E+02  9.984457E-01 -3.201222E+01  4.361531E-03 5.888027E+01  4.144571E-05 -1.179191E+02  5.148748E-05 -1.414569E+02 
 4.340035E-03 5.902230E+01  9.954989E-01 -3.104254E+01  1.756319E-04 6.567393E+01  3.104732E-04 6.760216E+01 
 6.854367E-05 -1.691873E+02  1.799845E-04 7.940374E+01  9.992989E-01 -1.635759E+01  1.638854E-02 7.409530E+01 
 4.672916E-05 -1.737851E+02  2.963324E-04 6.753535E+01  1.634085E-02 7.401582E+01  9.953476E-01 -1.568692E+01 
2.173437500E+02  9.990679E-01 -3.258565E+01  4.361105E-03 5.896140E+01  5.077228E-05 1.086658E+02  4.556049E-05 8.132882E+01 
 4.357118E-03 5.890866E+01  9.948920E-01 -3.158166E+01  2.166558E-04 5.186850E+01  3.274355E-04 6.940826E+01 
 2.695517E-05 1.251861E+02  2.449648E-04 4.775804E+01  9.979870E-01 -1.665861E+01  1.656531E-02 7.218356E+01 
 3.806153E-05 1.030323E+02  3.222002E-04 6.642284E+01  1.656659E-02 7.193335E+01  9.964425E-01 -1.608334E+01 
2.210625000E+02  9.975458E-01 -3.313634E+01  4.508271E-03 5.876741E+01  4.833904E-05 -1.567459E+02  3.945920E-05 -1.699033E+02 
 4.469695E-03 5.837573E+01  9.953994E-01 -3.208021E+01  2.226613E-04 7.638761E+01  3.056362E-04 6.864868E+01 
 5.881083E-05 1.725028E+02  2.152171E-04 7.436714E+01  9.988618E-01 -1.698783E+01  1.649430E-02 7.219791E+01 
 3.221320E-05 -8.009471E+01  3.057636E-04 6.958259E+01  1.646823E-02 7.223020E+01  9.955179E-01 -1.634830E+01 
2.247812500E+02  9.972487E-01 -3.367237E+01  4.533728E-03 5.624738E+01  5.492797E-05 1.606753E+02  2.294234E-05 1.684372E+02 
 4.502930E-03 5.668789E+01  9.967518E-01 -3.262178E+01  2.096363E-04 5.815610E+01  3.100247E-04 6.561619E+01 
 4.202373E-05 1.477540E+02  2.067055E-04 5.390022E+01  1.000129E+00 -1.721650E+01  1.686150E-02 7.253008E+01 
 1.535228E-06 1.121126E+02  3.105198E-04 6.569290E+01  1.684463E-02 7.256052E+01  9.968024E-01 -1.654132E+01 
2.285000000E+02  9.979739E-01 -3.423755E+01  4.620638E-03 5.729425E+01  1.731578E-05 -1.067740E+02  1.707776E-05 -6.162770E+00 
 4.619325E-03 5.743131E+01  9.953806E-01 -3.312370E+01  1.727695E-04 6.672524E+01  2.988692E-04 7.025227E+01 
 2.470062E-05 1.701694E+02  1.753578E-04 6.408941E+01  9.993862E-01 -1.745472E+01  1.715617E-02 7.213074E+01 
 3.193516E-05 -3.917050E+01  3.255633E-04 6.243259E+01  1.715399E-02 7.211995E+01  9.972501E-01 -1.683581E+01 
2.322187500E+02  9.965974E-01 -3.480956E+01  4.751593E-03 5.634721E+01  2.059385E-05 -3.002300E+01  2.614500E-05 -1.143118E+02 
 4.696099E-03 5.648560E+01  9.952810E-01 -3.376735E+01  1.927069E-04 6.569917E+01  3.303163E-04 6.825791E+01 
 2.400864E-05 1.546975E+00  2.091585E-04 6.074263E+01  9.984730E-01 -1.794004E+01  1.742028E-02 7.175518E+01 
 2.350753E-05 5.357952E+01  3.498068E-04 6.399596E+01  1.743204E-02 7.178618E+01  9.970341E-01 -1.723093E+01 
2.359375000E+02  9.979399E-01 -3.529057E+01  4.766372E-03 5.590447E+01  4.352005E-06 1.150088E+02  1.626217E-05 5.837272E+01 
 4.751278E-03 5.594676E+01  9.953867E-01 -3.420427E+01  1.546373E-04 7.631180E+01  3.046835E-04 6.360209E+01 
 1.664147E-05 -1.220139E+02  1.814787E-04 7.003083E+01  9.987706E-01 -1.805273E+01  1.758533E-02 7.172703E+01 
 1.731175E-05 -1.147957E+02  3.301963E-04 6.680261E+01  1.762506E-02 7.167531E+01  9.984621E-01 -1.743003E+01 
2.396562500E+02  9.968148E-01 -3.580995E+01  4.844991E-03 5.545713E+01  5.938234E-05 -1.190894E+02  2.271820E-05 -1.084631E+02 
 4.820541E-03 5.526011E+01  9.958692E-01 -3.466405E+01  1.848234E-04 5.925910E+01  3.111372E-04 6.617916E+01 
 6.677607E-05 -1.118157E+02  1.798186E-04 5.593224E+01  9.990615E-01 -1.832322E+01  1.788563E-02 7.134527E+01 
 1.180294E-05 -4.440503E+00  3.201506E-04 6.432752E+01  1.789161E-02 7.119971E+01  9.993794E-01 -1.770796E+01 
2.433750000E+02  9.972220E-01 -3.631067E+01  4.823058E-03 5.427398E+01  1.167250E-05 4.192316E+00  1.260693E-05 -1.488253E+01 
 4.812490E-03 5.421292E+01  9.960526E-01 -3.524521E+01  2.096229E-04 7.088366E+01  3.407122E-04 6.583550E+01 
 2.360032E-05 2.799347E+01  2.441280E-04 7.019773E+01  9.998935E-01 -1.864469E+01  1.820057E-02 7.118527E+01 
 9.705020E-06 -4.600544E+01  3.214974E-04 6.413956E+01  1.814467E-02 7.108098E+01  9.991772E-01 -1.801759E+01 
2.470937500E+02  9.971172E-01 -3.691609E+01  4.942746E-03 5.418656E+01  1.813972E-05 -1.189866E+02  3.402075E-05 -1.331188E+02 
 4.910289E-03 5.431046E+01  9.958427E-01 -3.575333E+01  2.121116E-04 6.708960E+01  3.246297E-04 6.754876E+01 
 1.423285E-05 -1.398742E+02  2.263409E-04 6.738387E+01  9.995629E-01 -1.892019E+01  1.867556E-02 7.064186E+01 
 2.732216E-05 1.428584E+02  3.276561E-04 6.710522E+01  1.866806E-02 7.075520E+01  9.998841E-01 -1.825114E+01 
2.508125000E+02  9.959861E-01 -3.756082E+01  4.999858E-03 5.345758E+01  3.748215E-05 1.737949E+02  1.438860E-05 -8.649097E+01 
 4.966073E-03 5.370343E+01  9.955493E-01 -3.626355E+01  2.232070E-04 7.483767E+01  3.164151E-04 6.856379E+01 
 2.751197E-05 -1.662816E+02  2.351639E-04 7.347940E+01  9.988605E-01 -1.924986E+01  1.872856E-02 6.917274E+01 
 3.054784E-05 -9.603167E+01  3.488385E-04 6.880199E+01  1.870930E-02 6.907657E+01  1.000081E+00 -1.863161E+01 
2.545312500E+02  9.954669E-01 -3.795876E+01  5.016345E-03 5.251429E+01  1.704961E-05 9.247993E+01  1.512692E-05 -8.296456E+01 
 4.993347E-03 5.274095E+01  9.918317E-01 -3.681341E+01  2.492386E-04 4.748972E+01  3.839893E-04 6.620503E+01 
 2.507936E-05 1.054693E+02  2.609386E-04 4.651167E+01  9.986446E-01 -1.956097E+01  1.836862E-02 6.952150E+01 
 1.576843E-05 1.498970E+02  3.774750E-04 6.139892E+01  1.832868E-02 6.946838E+01  1.000032E+00 -1.894850E+01 
2.582500000E+02  9.956918E-01 -3.852800E+01  5.095467E-03 5.302650E+01  2.722312E-05 -1.587696E+02  2.648921E-05 1.789723E+02 
 5.077590E-03 5.322900E+01  9.943111E-01 -3.733845E+01  2.142902E-04 5.183934E+01  3.546276E-04 6.358559E+01 
 3.343814E-05 -1.111252E+02  1.965765E-04 6.481028E+01  9.975993E-01 -1.980707E+01  1.894364E-02 7.164601E+01 
 7.190355E-06 -2.785256E+01  3.400378E-04 6.691312E+01  1.894484E-02 7.136553E+01  9.997446E-01 -1.908568E+01 
2.619687500E+02  9.949892E-01 -3.909603E+01  5.148354E-03 5.137714E+01  6.792978E-06 9.011621E+01  2.832808E-05 -1.026640E+02 
 5.141963E-03 5.138222E+01  9.938540E-01 -3.782031E+01  1.432722E-04 6.360345E+01  3.350728E-04 6.761052E+01 
 9.356904E-06 4.104968E+01  1.245743E-04 5.843012E+01  9.976671E-01 -2.007911E+01  1.978129E-02 7.039514E+01 
 3.710547E-05 -9.451747E+01  3.126931E-04 6.594353E+01  1.980056E-02 7.025948E+01  9.990617E-01 -1.936472E+01 
2.656875000E+02  9.952656E-01 -3.965283E+01  5.271123E-03 5.224118E+01  3.527228E-05 -5.865011E+01  1.742720E-05 -6.765846E+01 
 5.224631E-03 5.247288E+01  9.933950E-01 -3.834046E+01  2.323095E-04 7.201901E+01  3.080354E-04 6.564261E+01 
 2.328558E-05 -1.234455E+02  2.363854E-04 6.302658E+01  9.981024E-01 -2.036690E+01  1.993693E-02 6.860534E+01 
 9.331680E-06 1.966584E+00  3.477909E-04 6.808481E+01  1.993431E-02 6.836998E+01  1.000227E+00 -1.974294E+01 
2.694062500E+02  9.945664E-01 -4.015655E+01  5.222687E-03 5.159550E+01  2.514723E-05 -1.599515E+02  9.710658E-06 -1.193781E+02 
 5.181805E-03 5.158804E+01  9.942074E-01 -3.882381E+01  2.208265E-04 7.551105E+01  3.447633E-04 6.290579E+01 
 2.521012E-05 -1.392457E+02  2.103647E-04 8.078877E+01  9.974644E-01 -2.068396E+01  1.952217E-02 6.778495E+01 
 1.361866E-05 -1.342929E+02  3.102285E-04 6.190140E+01  1.952723E-02 6.771689E+01  9.989174E-01 -1.996101E+01 
2.731250000E+02  9.940158E-01 -4.069364E+01  5.328961E-03 5.050865E+01  2.392351E-05 1.545202E+02  1.834421E-05 1.335608E+02 
 5.289999E-03 5.072087E+01  9.938239E-01 -3.935726E+01  2.143776E-04 5.959321E+01  3.714103E-04 6.374545E+01 
 3.277631E-05 1.339922E+02  2.196705E-04 6.292394E+01  9.971873E-01 -2.101274E+01  1.990475E-02 6.887242E+01 
 5.426723E-06 3.053081E+01  3.677408E-04 6.143359E+01  1.996690E-02 6.876413E+01  9.994149E-01 -2.023036E+01 
2.768437500E+02  9.935261E-01 -4.128531E+01  5.301319E-03 4.986123E+01  5.014644E-05 -1.111521E+02  3.519982E-05 -1.519830E+02 
 5.279491E-03 4.978376E+01  9.924609E-01 -3.984521E+01  2.514189E-04 7.012377E+01  3.295737E-04 6.402977E+01 
 5.376642E-05 -1.383396E+02  2.592444E-04 6.583786E+01  9.970411E-01 -2.129497E+01  2.025074E-02 6.843360E+01 
 4.469460E-05 -1.575505E+02  3.157288E-04 6.180158E+01  2.028092E-02 6.835082E+01  1.000147E+00 -2.055646E+01 
2.805625000E+02  9.929444E-01 -4.173886E+01  5.425934E-03 4.886598E+01  2.519321E-05 1.720650E+02  2.625453E-05 9.908040E+01 
 5.384331E-03 4.913812E+01  9.919753E-01 -4.037952E+01  2.417010E-04 6.176236E+01  3.399950E-04 6.433862E+01 
 4.314580E-05 1.646642E+02  2.308447E-04 5.694522E+01  9.959175E-01 -2.156448E+01  2.048337E-02 6.815605E+01 
 1.644887E-05 -3.330366E-02  3.221756E-04 6.724020E+01  2.059919E-02 6.807464E+01  1.000892E+00 -2.076266E+01 
2.842812500E+02  9.929687E-01 -4.226963E+01  5.415987E-03 4.885631E+01  1.140686E-05 1.649736E+02  3.419239E-05 -1.788691E+02 
 5.404050E-03 4.866989E+01  9.916666E-01 -4.082423E+01  2.636254E-04 6.532210E+01  3.273716E-04 6.433174E+01 
 4.300349E-06 -8.458125E-02  2.415766E-04 6.878051E+01  9.967070E-01 -2.185997E+01  2.070162E-02 6.796017E+01 
 1.713979E-05 -1.045919E+02  3.373327E-04 6.736871E+01  2.069990E-02 6.777276E+01  9.998058E-01 -2.108667E+01 
2.880000000E+02  9.927160E-01 -4.284669E+01  5.508796E-03 4.817418E+01  2.479957E-05 -1.639530E+02  4.079732E-05 1.728444E+02 
 5.494728E-03 4.819101E+01  9.915267E-01 -4.134664E+01  2.105067E-04 6.792891E+01  3.587360E-04 6.462262E+01 
 1.048035E-05 2.069039E+01  2.328394E-04 5.884451E+01  9.969606E-01 -2.213666E+01  2.099012E-02 6.754341E+01 
 4.473361E-05 -1.653388E+02  3.267831E-04 6.525685E+01  2.097186E-02 6.756267E+01  9.998703E-01 -2.137113E+01 
2.917187500E+02  9.924589E-01 -4.333361E+01  5.568402E-03 4.789909E+01  1.089106E-05 1.068075E+02  3.592900E-05 -6.967687E+00 
 5.553543E-03 4.800685E+01  9.923651E-01 -4.180016E+01  2.509945E-04 5.439937E+01  3.632352E-04 6.338663E+01 
 2.930705E-05 -7.750766E+00  2.591644E-04 5.570478E+01  9.962510E-01 -2.242870E+01  2.119556E-02 6.774741E+01 
 1.840665E-05 1.694243E+02  3.438440E-04 6.311334E+01  2.117966E-02 6.756454E+01  9.989252E-01 -2.156672E+01 
2.954375000E+02  9.928687E-01 -4.390498E+01  5.617042E-03 4.731522E+01  2.543069E-05 -1.472123E+02  3.503586E-05 -1.476508E+02 
 5.593345E-03 4.740247E+01  9.920685E-01 -4.231370E+01  1.980105E-04 7.332516E+01  3.198401E-04 6.102646E+01 
 1.916914E-05 -7.560766E+01  2.186473E-04 8.197539E+01  9.954857E-01 -2.276015E+01  2.157419E-02 6.680615E+01 
 8.122076E-06 -8.634663E+01  3.735660E-04 6.333245E+01  2.156770E-02 6.679082E+01  9.990665E-01 -2.192483E+01 
2.991562500E+02  9.918047E-01 -4.430413E+01  5.659092E-03 4.714681E+01  3.747279E-05 1.699913E+02  2.918134E-05 1.770519E+02 
 5.614067E-03 4.757074E+01  9.917146E-01 -4.281957E+01  2.151121E-04 6.291609E+01  3.910871E-04 6.444931E+01 
 2.680334E-05 1.187061E+02  2.384416E-04 5.844409E+01  9.956889E-01 -2.304076E+01  2.157059E-02 6.574234E+01 
 4.460685E-05 1.794990E+02  3.338705E-04 6.426912E+01  2.157199E-02 6.570764E+01  9.985876E-01 -2.223325E+01 
3.028750000E+02  9.922307E-01 -4.492485E+01  5.702121E-03 4.605409E+01  2.031932E-05 -1.361999E+02  3.502034E-05 -9.379315E+01 
 5.680203E-03 4.598281E+01  9.904203E-01 -4.321898E+01  2.180796E-04 6.150425E+01  3.870107E-04 6.271937E+01 
 7.210282E-06 -1.799537E+02  2.362343E-04 5.791523E+01  9.940908E-01 -2.333190E+01  2.113389E-02 6.599705E+01 
 2.091641E-05 -9.654164E+01  4.020017E-04 5.892428E+01  2.118551E-02 6.589577E+01  9.973586E-01 -2.245699E+01 
3.065937500E+02  9.926050E-01 -4.543401E+01  5.714780E-03 4.616964E+01  3.570613E-05 -7.380207E+01  1.861965E-05 -1.401428E+02 
 5.670538E-03 4.633658E+01  9.898835E-01 -4.371667E+01  1.440374E-04 5.367036E+01  3.462434E-04 5.599085E+01 
 3.016907E-05 -8.456089E+01  1.470662E-04 6.308233E+01  9.949491E-01 -2.351884E+01  2.187130E-02 6.828921E+01 
 1.621347E-05 -1.610636E+02  3.819224E-04 6.099156E+01  2.193096E-02 6.825964E+01  9.972145E-01 -2.268090E+01 
3.103125000E+02  9.923214E-01 -4.590938E+01  5.888562E-03 4.532587E+01  2.312593E-05 2.208445E+01  1.844454E-05 1.771904E+02 
 5.814472E-03 4.556901E+01  9.898874E-01 -4.423441E+01  1.891361E-04 5.579943E+01  3.330535E-04 6.268295E+01 
 2.363796E-05 -2.154468E+00  2.328317E-04 5.975142E+01  9.948333E-01 -2.381874E+01  2.295033E-02 6.666819E+01 
 1.312616E-05 -1.080277E+02  3.231766E-04 5.660686E+01  2.294241E-02 6.648410E+01  9.968410E-01 -2.293852E+01 
3.140312500E+02  9.932311E-01 -4.645600E+01  5.832277E-03 4.523293E+01  3.055746E-05 -9.031921E+01  1.399120E-05 -1.186781E+02 
 5.764940E-03 4.504041E+01  9.903031E-01 -4.473668E+01  2.327796E-04 7.128573E+01  3.346472E-04 6.229466E+01 
 9.187378E-06 1.033984E+02  2.600806E-04 7.372280E+01  9.945087E-01 -2.411686E+01  2.285200E-02 6.434590E+01 
 1.786472E-05 -1.349323E+02  3.689119E-04 5.851293E+01  2.283727E-02 6.427404E+01  9.975359E-01 -2.326973E+01 
3.177500000E+02  9.923996E-01 -4.702506E+01  5.936357E-03 4.484646E+01  3.108707E-05 -8.617014E+01  4.656570E-05 1.788641E+02 
 5.859787E-03 4.491002E+01  9.900208E-01 -4.527441E+01  2.169101E-04 6.082761E+01  3.621138E-04 6.319469E+01 
 2.904445E-05 -8.148362E+01  2.825606E-04 6.404993E+01  9.945240E-01 -2.441053E+01  2.226361E-02 6.468894E+01 
 1.357734E-05 1.704900E+02  3.535141E-04 6.525377E+01  2.229798E-02 6.466679E+01  9.965110E-01 -2.347084E+01 
3.214687500E+02  9.918755E-01 -4.752531E+01  5.898988E-03 4.489212E+01  3.586488E-05 -1.302163E+02  2.308222E-05 -1.473845E+02 
 5.846226E-03 4.521522E+01  9.899131E-01 -4.576817E+01  2.162821E-04 6.127596E+01  3.701493E-04 5.681238E+01 
 1.693396E-05 1.197756E+02  2.511437E-04 6.485715E+01  9.958298E-01 -2.474052E+01  2.270705E-02 6.533710E+01 
 2.943242E-05 1.774391E+02  3.770810E-04 6.175204E+01  2.270577E-02 6.527569E+01  9.965016E-01 -2.375690E+01 
3.251875000E+02  9.920539E-01 -4.807967E+01  5.939208E-03 4.412129E+01  3.537257E-05 -1.414162E+02  2.815428E-05 -1.176744E+02 
 5.897696E-03 4.441231E+01  9.894419E-01 -4.623368E+01  2.360292E-04 6.022135E+01  3.523125E-04 6.442211E+01 
 4.883390E-05 -1.580263E+02  1.637007E-04 5.911109E+01  9.946603E-01 -2.508410E+01  2.302857E-02 6.489525E+01 
 7.505061E-06 8.408175E+00  3.546037E-04 5.983789E+01  2.310123E-02 6.480792E+01  9.958171E-01 -2.408813E+01 
3.289062500E+02  9.914503E-01 -4.855465E+01  6.019277E-03 4.283980E+01  5.444212E-05 -1.755915E+02  4.870928E-05 -1.439374E+02 
 5.961344E-03 4.313967E+01  9.892722E-01 -4.672373E+01  2.006075E-04 6.273058E+01  3.359508E-04 6.219784E+01 
 3.248225E-05 -1.460934E+02  1.914625E-04 5.919746E+01  9.952940E-01 -2.527431E+01  2.324061E-02 6.458328E+01 
 3.154875E-05 -1.156504E+02  3.640093E-04 6.579308E+01  2.326877E-02 6.444464E+01  9.952269E-01 -2.434060E+01 
3.326250000E+02  9.927127E-01 -4.902395E+01  6.083061E-03 4.285541E+01  2.139711E-05 -1.574473E+02  7.361555E-05 -1.367525E+02 
 6.011779E-03 4.294613E+01  9.894682E-01 -4.722454E+01  2.664040E-04 6.769546E+01  3.411375E-04 5.788624E+01 
 1.900464E-05 -2.000531E+01  2.350321E-04 6.428000E+01  9.954970E-01 -2.558553E+01  2.353124E-02 6.412977E+01 
 4.026834E-05 -1.438863E+02  3.641329E-04 6.361868E+01  2.362496E-02 6.386980E+01  9.953061E-01 -2.455414E+01 
3.363437500E+02  9.928572E-01 -4.958301E+01  6.146007E-03 4.236784E+01  3.401972E-05 1.141290E+02  3.842647E-05 1.564573E+02 