! Matrix data file written by TouchstoneData, EPCOS AG
! FILENAME: "ansys_B4405_01_WB.s4p"
! COMMENT: "(B4405_01_WB.s4p) Epcos AG 2/4/2013 4:13:42"
! INFO: nport=4, nfreq=1601
! DATE: "Fri Feb 22 09:42:22 2013"
! USER: "Daniel Harbusch"
!
!port | pin | signal
! -----|-----|--------
!   1  |  3  |  TX Input
!   2  |  6  |  Antenna
!   3  |  8  |  RX output (balanced)
!   4  |  1  |  RX output (balanced)
! 
# MHZ S MA R 50
! freq  magS11 angS11  magS12 angS12  magS13 angS13  magS14 angS14  ...
5.000000000E+01  9.976916E-01 -7.698168E+00  2.869278E-03 7.999530E+01  1.794661E-05 -3.669061E+01  1.068383E-04 2.589912E+00 
2.856211E-03 8.143388E+01  9.981644E-01 -9.031026E+00  1.613643E-04 2.793702E+01  1.096755E-04 3.652077E+01 
7.732539E-05 -4.221379E+01  1.308091E-04 4.981082E+01  9.975691E-01 -2.989790E+00  3.188148E-02 8.725255E+01 
3.836242E-05 -1.177786E+02  1.251364E-04 9.755671E+01  3.189927E-02 8.725830E+01  9.968179E-01 -2.910044E+00 
5.371875000E+01  9.969377E-01 -8.234758E+00  3.120810E-03 8.016514E+01  1.931338E-06 2.708570E+01  2.358099E-05 -1.158387E+02 
3.106308E-03 8.042180E+01  9.980803E-01 -9.690525E+00  1.516441E-04 7.000585E+01  1.516563E-04 7.220548E+01 
1.174156E-05 -1.570608E+02  1.884476E-04 8.024266E+01  9.979699E-01 -3.164439E+00  3.417460E-02 8.679503E+01 
6.220646E-06 1.644193E+02  1.620150E-04 8.100889E+01  3.418759E-02 8.686863E+01  9.968019E-01 -3.085901E+00 
5.743750000E+01  9.955188E-01 -8.820511E+00  3.310255E-03 7.976776E+01  4.622176E-06 5.839254E+00  2.897096E-05 1.540853E+02 
3.255235E-03 8.018763E+01  9.977667E-01 -1.035883E+01  1.774766E-04 8.562194E+01  1.660163E-04 8.475098E+01 
2.150358E-05 7.499118E+00  1.514759E-04 9.467736E+01  9.986650E-01 -3.365207E+00  3.663505E-02 8.678660E+01 
1.334622E-05 1.508113E+02  1.600255E-04 8.596396E+01  3.658400E-02 8.670103E+01  9.968624E-01 -3.325352E+00 
6.115625000E+01  9.969047E-01 -9.396996E+00  3.652913E-03 7.860999E+01  1.716790E-05 1.759914E+02  2.254728E-05 -1.472837E+02 
3.640989E-03 7.877450E+01  9.989597E-01 -1.114368E+01  1.716152E-04 8.708988E+01  1.996182E-04 9.666377E+01 
3.836697E-05 1.578502E+02  1.730159E-04 9.223208E+01  9.978907E-01 -3.658232E+00  3.913269E-02 8.638174E+01 
3.064607E-05 -1.476149E+02  1.881595E-04 9.954198E+01  3.913937E-02 8.632092E+01  9.967506E-01 -3.579751E+00 
6.487500000E+01  9.965814E-01 -1.001738E+01  3.538213E-03 8.213844E+01  2.746955E-05 -1.655802E+02  4.342291E-05 -5.856112E+01 
3.518287E-03 8.214107E+01  9.979581E-01 -1.181692E+01  8.820238E-05 6.269244E+01  1.675092E-04 4.694852E+01 
2.374434E-05 1.766912E+02  1.020039E-04 7.678440E+01  9.969553E-01 -3.887481E+00  4.141018E-02 8.607019E+01 
4.011640E-05 -6.454840E+01  1.521604E-04 6.428358E+01  4.141292E-02 8.605578E+01  9.961580E-01 -3.795504E+00 
6.859375000E+01  9.965172E-01 -1.072292E+01  4.054189E-03 7.555582E+01  6.281336E-05 -1.453539E+02  7.244729E-05 1.676049E+02 
4.038705E-03 7.562496E+01  9.980295E-01 -1.250761E+01  2.197380E-04 5.826992E+01  2.200751E-04 7.033929E+01 
7.166177E-05 -1.583962E+02  2.035839E-04 5.834410E+01  9.975688E-01 -4.113605E+00  4.348869E-02 8.600996E+01 
5.341058E-05 1.776248E+02  1.882327E-04 6.530017E+01  4.347667E-02 8.590877E+01  9.954508E-01 -4.024126E+00 
7.231250000E+01  9.981561E-01 -1.107497E+01  4.198203E-03 7.726595E+01  5.368425E-05 -5.824058E+01  5.683709E-05 6.738422E+01 
4.179687E-03 7.743461E+01  9.980104E-01 -1.309886E+01  1.173332E-04 1.044723E+02  1.374548E-04 6.888392E+01 
4.821728E-05 -5.885920E+01  1.250086E-04 1.116034E+02  9.957358E-01 -4.350031E+00  4.600579E-02 8.625278E+01 
4.030340E-05 7.138373E+01  1.341189E-04 6.970461E+01  4.601819E-02 8.611250E+01  9.951105E-01 -4.232115E+00 
7.603125000E+01  9.969291E-01 -1.174357E+01  4.492792E-03 7.739186E+01  1.494280E-05 -6.486967E+01  6.034753E-05 -1.211745E+02 
4.475421E-03 7.748753E+01  9.978238E-01 -1.381458E+01  1.751077E-04 8.322980E+01  2.033650E-04 8.482294E+01 
4.039963E-05 -1.114212E+02  1.829966E-04 7.631988E+01  9.970978E-01 -4.549592E+00  4.868620E-02 8.558701E+01 
8.624354E-05 -1.149175E+02  1.962074E-04 8.202607E+01  4.868688E-02 8.561054E+01  9.961935E-01 -4.461399E+00 
7.975000000E+01  9.961763E-01 -1.231646E+01  4.533988E-03 7.506212E+01  4.763649E-06 1.428102E+02  5.136125E-05 1.366662E+02 
4.544377E-03 7.538303E+01  9.982632E-01 -1.445942E+01  1.830768E-04 8.895825E+01  1.922982E-04 1.014308E+02 
7.176229E-06 9.643609E+01  1.520368E-04 8.670199E+01  9.981283E-01 -4.793223E+00  5.108651E-02 8.539506E+01 
3.521923E-05 1.793586E+02  1.756534E-04 9.663325E+01  5.120224E-02 8.511309E+01  9.972189E-01 -4.698109E+00 
8.346875000E+01  9.973256E-01 -1.286669E+01  4.927502E-03 7.510259E+01  2.401546E-05 1.391148E+02  1.723309E-05 -1.460971E+02 
4.897042E-03 7.538865E+01  9.984835E-01 -1.514074E+01  2.670693E-04 8.229946E+01  2.709358E-04 7.832750E+01 
8.434875E-06 4.682420E+01  2.660073E-04 8.797669E+01  9.967601E-01 -4.994425E+00  5.324424E-02 8.508056E+01 
1.829322E-05 -1.541995E+02  2.474375E-04 8.366671E+01  5.322934E-02 8.497489E+01  9.957937E-01 -4.925374E+00 
8.718750000E+01  9.978143E-01 -1.345068E+01  5.008646E-03 7.476653E+01  4.645074E-05 -1.338865E+02  3.798739E-05 1.700166E+02 
4.956353E-03 7.481727E+01  9.985282E-01 -1.581932E+01  2.128808E-04 6.313961E+01  2.661286E-04 5.606876E+01 
3.043045E-05 -1.512690E+02  2.018682E-04 6.602764E+01  9.961789E-01 -5.153102E+00  5.559416E-02 8.494313E+01 
5.549304E-05 1.442688E+02  2.454798E-04 5.056847E+01  5.579543E-02 8.469846E+01  9.944219E-01 -5.167979E+00 
9.090625000E+01  9.973625E-01 -1.404196E+01  5.296858E-03 7.435602E+01  2.214849E-05 -6.289620E+01  1.299958E-05 -4.768631E+01 
5.256476E-03 7.456600E+01  9.984485E-01 -1.648578E+01  2.257296E-04 7.848537E+01  2.295906E-04 8.678811E+01 
2.999215E-05 -1.132094E+01  2.199212E-04 8.131230E+01  9.967577E-01 -5.461085E+00  5.791297E-02 8.442164E+01 
2.526989E-05 -1.033631E+02  2.229252E-04 8.639532E+01  5.791129E-02 8.419362E+01  9.964580E-01 -5.418148E+00 
9.462500000E+01  9.964772E-01 -1.449420E+01  5.547316E-03 7.571131E+01  4.785535E-05 6.967458E+01  3.504303E-05 2.619434E+01 
5.530549E-03 7.560035E+01  9.968657E-01 -1.721484E+01  2.710868E-04 9.353562E+01  3.409917E-04 7.157830E+01 
4.920845E-05 8.032888E+01  2.809591E-04 8.631626E+01  9.964265E-01 -5.676889E+00  6.009625E-02 8.450757E+01 
4.434224E-05 3.853438E+01  3.382744E-04 7.007049E+01  6.013345E-02 8.444603E+01  9.956854E-01 -5.642660E+00 
9.834375000E+01  9.974761E-01 -1.515558E+01  5.657466E-03 7.313342E+01  2.541824E-05 1.706818E+02  2.198843E-05 -1.283815E+02 
5.656950E-03 7.333378E+01  9.980576E-01 -1.781814E+01  2.712651E-04 8.713564E+01  2.895186E-04 7.812163E+01 
2.473161E-05 5.212800E+01  2.702543E-04 8.873515E+01  9.954318E-01 -5.892740E+00  6.233308E-02 8.406763E+01 
1.896843E-05 4.695343E+01  2.959330E-04 8.317329E+01  6.245045E-02 8.403836E+01  9.958792E-01 -5.802046E+00 
1.020625000E+02  9.970765E-01 -1.575545E+01  5.891044E-03 7.253350E+01  7.260486E-06 -1.589325E+02  4.923092E-06 1.495442E+02 
5.877712E-03 7.279181E+01  9.981604E-01 -1.849569E+01  2.252116E-04 7.938786E+01  2.770222E-04 7.281269E+01 
3.789841E-05 -1.049801E+02  2.258304E-04 7.526207E+01  9.956662E-01 -6.179642E+00  6.468372E-02 8.407924E+01 
1.786258E-05 8.712628E+01  2.570158E-04 6.776537E+01  6.468627E-02 8.403849E+01  9.956508E-01 -6.005850E+00 
1.057812500E+02  9.970201E-01 -1.627706E+01  6.106102E-03 7.260352E+01  2.653794E-05 -6.624802E+01  2.880322E-05 -4.359071E+01 
6.032890E-03 7.235301E+01  9.979619E-01 -1.915537E+01  2.415041E-04 7.451554E+01  2.486547E-04 7.344802E+01 
3.431880E-05 1.481386E+01  2.587052E-04 7.326003E+01  9.949672E-01 -6.380303E+00  6.745443E-02 8.407550E+01 
2.437448E-05 -6.172480E+01  2.624675E-04 7.625185E+01  6.758979E-02 8.401368E+01  9.952084E-01 -6.214845E+00 
1.095000000E+02  9.968511E-01 -1.686478E+01  6.294859E-03 7.236772E+01  3.810232E-06 4.347765E+00  2.513504E-05 -9.593111E+00 
6.250844E-03 7.249467E+01  9.980139E-01 -1.977759E+01  2.592453E-04 8.119813E+01  3.189525E-04 8.310645E+01 
1.539518E-05 3.608543E+00  2.783935E-04 8.085318E+01  9.952711E-01 -6.612488E+00  6.976968E-02 8.331531E+01 
1.395210E-05 1.557878E+02  2.983134E-04 7.755958E+01  6.992574E-02 8.340324E+01  9.957397E-01 -6.440970E+00 
1.132187500E+02  9.970993E-01 -1.743833E+01  6.468055E-03 7.119180E+01  4.215753E-05 -2.430890E+01  2.315293E-05 3.109578E+01 
6.471305E-03 7.130589E+01  9.982954E-01 -2.047780E+01  2.963852E-04 8.574865E+01  2.735845E-04 7.901626E+01 
3.124001E-05 -1.500860E+01  3.057926E-04 8.634175E+01  9.960212E-01 -6.791235E+00  7.187107E-02 8.326744E+01 
2.682327E-05 2.710863E+01  2.796156E-04 8.617616E+01  7.193718E-02 8.314784E+01  9.953150E-01 -6.712789E+00 
1.169375000E+02  9.971781E-01 -1.786485E+01  6.710386E-03 7.075591E+01  1.934219E-05 8.396041E+01  2.675968E-05 -1.100208E+02 
6.664117E-03 7.073848E+01  9.957728E-01 -2.121825E+01  3.342687E-04 7.862759E+01  3.430030E-04 7.239656E+01 
9.683110E-06 1.534508E+02  3.191654E-04 7.694326E+01  9.957215E-01 -7.050435E+00  7.444656E-02 8.310230E+01 
4.438515E-06 -7.776868E+01  3.408092E-04 7.100692E+01  7.447308E-02 8.306074E+01  9.954870E-01 -6.911803E+00 
1.206562500E+02  9.976717E-01 -1.851303E+01  6.746834E-03 7.031354E+01  4.844977E-05 -1.732907E+02  3.784471E-05 -1.733960E+02 
6.710384E-03 7.055378E+01  9.975980E-01 -2.174992E+01  3.256323E-04 7.968472E+01  2.686773E-04 8.215643E+01 
4.768016E-05 -1.444948E+02  3.129256E-04 8.152645E+01  9.957014E-01 -7.165492E+00  7.694978E-02 8.285715E+01 
1.078609E-05 -1.344611E+02  2.902813E-04 8.118339E+01  7.703649E-02 8.285215E+01  9.943131E-01 -7.073561E+00 
1.243750000E+02  9.982698E-01 -1.903501E+01  7.043791E-03 6.871476E+01  3.895268E-05 1.674337E+02  1.937828E-05 1.562218E+02 
7.005464E-03 6.890392E+01  9.973769E-01 -2.239399E+01  2.970665E-04 6.837222E+01  3.076378E-04 6.534073E+01 
6.214545E-05 -1.778098E+02  3.034756E-04 5.880024E+01  9.951670E-01 -7.464021E+00  7.917459E-02 8.233794E+01 
2.709982E-05 -1.173965E+02  3.437626E-04 6.626212E+01  7.922161E-02 8.244868E+01  9.959166E-01 -7.329541E+00 
1.280937500E+02  9.979501E-01 -1.964183E+01  7.359843E-03 6.890819E+01  2.394685E-05 1.485955E+02  3.992173E-05 1.428405E+01 
7.327028E-03 6.892840E+01  9.982111E-01 -2.311640E+01  3.442080E-04 7.361463E+01  3.179470E-04 7.753591E+01 
2.905677E-05 -1.296581E+02  3.337940E-04 7.622815E+01  9.949688E-01 -7.658029E+00  8.125109E-02 8.234600E+01 
4.409257E-05 -3.633149E+01  3.292563E-04 7.702565E+01  8.144053E-02 8.226515E+01  9.957006E-01 -7.523988E+00 
1.318125000E+02  9.984279E-01 -2.020988E+01  7.494837E-03 6.869449E+01  2.476349E-06 9.127437E+01  3.031790E-05 -1.768745E+02 
7.410670E-03 6.849646E+01  9.982881E-01 -2.371099E+01  2.745847E-04 7.476380E+01  3.114633E-04 6.340461E+01 
3.428861E-05 -1.527566E+02  2.649643E-04 7.540016E+01  9.953098E-01 -7.922360E+00  8.382670E-02 8.202711E+01 
1.816461E-05 -1.155601E+02  3.177974E-04 6.701336E+01  8.379707E-02 8.197650E+01  9.951204E-01 -7.763784E+00 
1.355312500E+02  9.985509E-01 -2.075117E+01  7.800514E-03 6.756746E+01  8.110108E-06 1.118893E+02  5.269532E-05 1.584429E+02 
7.756248E-03 6.748215E+01  9.980399E-01 -2.444331E+01  3.275722E-04 8.277801E+01  3.538851E-04 7.629737E+01 
1.435800E-05 1.562238E+02  3.106485E-04 7.948242E+01  9.939632E-01 -8.109881E+00  8.587752E-02 8.177918E+01 
3.741427E-05 -1.666397E+02  3.424502E-04 7.612734E+01  8.611565E-02 8.183360E+01  9.955494E-01 -8.070852E+00 
1.392500000E+02  9.964783E-01 -2.138935E+01  7.834050E-03 6.711331E+01  8.764286E-06 -5.134169E-01  3.850734E-05 -5.956226E+01 
7.804376E-03 6.709439E+01  9.977682E-01 -2.507739E+01  3.015319E-04 7.532972E+01  3.757855E-04 7.808778E+01 
6.333676E-06 1.730879E+02  3.295874E-04 7.942731E+01  9.942183E-01 -8.388463E+00  8.840659E-02 8.156077E+01 
4.199170E-05 -1.130920E+02  3.738699E-04 7.639933E+01  8.839924E-02 8.153983E+01  9.956695E-01 -8.270001E+00 
1.429687500E+02  9.972082E-01 -2.188896E+01  8.067892E-03 6.584617E+01  4.854258E-05 -3.407640E+01  1.114451E-05 8.924263E+01 
8.036862E-03 6.630953E+01  9.973066E-01 -2.570506E+01  2.504735E-04 6.931443E+01  2.281883E-04 6.970695E+01 
5.803596E-05 -1.997914E+01  2.505817E-04 7.125960E+01  9.934740E-01 -8.568418E+00  9.053244E-02 8.137672E+01 
1.611064E-05 1.313135E+02  2.396778E-04 7.477561E+01  9.081519E-02 8.145015E+01  9.945651E-01 -8.406353E+00 
1.466875000E+02  9.970238E-01 -2.241848E+01  8.197303E-03 6.560734E+01  3.207344E-05 1.391043E+02  2.853530E-05 -9.082583E+01 
8.137511E-03 6.575685E+01  9.973310E-01 -2.635446E+01  3.707166E-04 8.453512E+01  4.377322E-04 8.392228E+01 
3.717087E-05 -1.040503E+02  3.492357E-04 8.755937E+01  9.931752E-01 -8.738471E+00  9.325270E-02 8.129200E+01 
3.445318E-05 -1.031725E+02  4.244507E-04 8.393167E+01  9.336619E-02 8.128151E+01  9.943165E-01 -8.607381E+00 
1.504062500E+02  9.972239E-01 -2.299078E+01  8.261435E-03 6.548607E+01  4.940177E-05 -1.653953E+02  4.446090E-05 1.718449E+02 
8.183635E-03 6.529811E+01  9.968834E-01 -2.703670E+01  3.602115E-04 7.743056E+01  3.662752E-04 7.514053E+01 
5.643799E-05 -1.679836E+02  3.646162E-04 7.632115E+01  9.932226E-01 -8.963101E+00  9.546170E-02 8.089726E+01 
5.824405E-05 1.714926E+02  3.603198E-04 7.842443E+01  9.570615E-02 8.085805E+01  9.948415E-01 -8.870186E+00 
1.541250000E+02  9.983753E-01 -2.352641E+01  8.499033E-03 6.400017E+01  1.795218E-05 -8.051064E+01  3.634174E-05 -3.669125E+01 
8.471208E-03 6.437894E+01  9.975222E-01 -2.771621E+01  3.250572E-04 7.421454E+01  3.907912E-04 7.729087E+01 
2.126101E-05 7.376757E+01  3.335753E-04 7.072616E+01  9.935087E-01 -9.216226E+00  9.743727E-02 8.061434E+01 
1.439289E-05 -1.390508E+02  3.905176E-04 7.147648E+01  9.760314E-02 8.055867E+01  9.946051E-01 -9.020889E+00 
1.578437500E+02  9.974091E-01 -2.417086E+01  8.669964E-03 6.405460E+01  2.422477E-05 1.224048E+02  2.976795E-05 4.514469E+01 
8.653787E-03 6.436607E+01  9.981400E-01 -2.831277E+01  4.259826E-04 6.933216E+01  4.201483E-04 7.536573E+01 
2.288619E-05 -1.423283E+02  4.231150E-04 7.728801E+01  9.932102E-01 -9.463061E+00  9.922299E-02 8.069128E+01 
2.696590E-05 -1.518518E+02  4.057122E-04 7.436455E+01  9.957800E-02 8.071640E+01  9.938269E-01 -9.314610E+00 
1.615625000E+02  9.951152E-01 -2.466910E+01  8.936865E-03 6.341049E+01  2.183095E-05 -9.674110E+01  4.677440E-05 6.433902E+01 
8.870909E-03 6.364708E+01  9.968208E-01 -2.896433E+01  3.605152E-04 6.520547E+01  4.131413E-04 6.280922E+01 
9.597730E-06 1.355701E+02  3.467087E-04 6.471024E+01  9.926166E-01 -9.651626E+00  1.019878E-01 8.077022E+01 
2.422293E-05 7.744774E+01  4.109750E-04 6.124661E+01  1.022079E-01 8.082134E+01  9.936583E-01 -9.510535E+00 
1.652812500E+02  9.972897E-01 -2.515487E+01  9.110480E-03 6.238069E+01  4.441394E-05 6.099878E+01  2.303946E-05 9.181440E+00 
9.021080E-03 6.229525E+01  9.958705E-01 -2.956408E+01  4.339780E-04 6.626709E+01  4.514027E-04 6.688867E+01 
2.016152E-05 1.357844E+02  4.315463E-04 6.006592E+01  9.918424E-01 -9.883440E+00  1.046992E-01 8.028646E+01 
2.640705E-05 -8.467062E-01  4.384447E-04 6.188810E+01  1.049027E-01 8.020334E+01  9.933829E-01 -9.736865E+00 
1.690000000E+02  9.972187E-01 -2.575022E+01  9.252963E-03 6.190699E+01  1.291739E-05 -1.781713E+02  9.356343E-06 -7.171158E+01 
9.151678E-03 6.230806E+01  9.975630E-01 -3.025934E+01  3.988183E-04 7.854062E+01  4.195487E-04 6.940858E+01 
1.767019E-05 5.343005E+01  3.838244E-04 7.459353E+01  9.913254E-01 -1.003496E+01  1.071395E-01 7.987023E+01 
2.489341E-05 8.952160E+01  4.262307E-04 7.393615E+01  1.070961E-01 7.982426E+01  9.933829E-01 -9.869576E+00 
1.727187500E+02  9.971351E-01 -2.625657E+01  9.623992E-03 6.226118E+01  2.001548E-05 -1.228070E+02  6.953202E-06 5.078586E+01 
9.600910E-03 6.206083E+01  9.967860E-01 -3.085850E+01  3.770528E-04 7.325671E+01  4.198661E-04 7.364858E+01 
1.973013E-05 1.017050E+02  3.955595E-04 7.072011E+01  9.915672E-01 -1.023502E+01  1.091521E-01 7.964486E+01 
1.226451E-05 1.754973E+02  3.988612E-04 6.804483E+01  1.093551E-01 7.971801E+01  9.929635E-01 -1.010119E+01 
1.764375000E+02  9.978600E-01 -2.680787E+01  9.740644E-03 6.073559E+01  2.888212E-05 6.682037E+01  2.242216E-05 -1.268863E+02 
9.704713E-03 6.065247E+01  9.976327E-01 -3.147869E+01  4.087037E-04 7.816502E+01  4.564116E-04 7.528562E+01 
2.265998E-05 6.758465E+01  4.031935E-04 8.092741E+01  9.907232E-01 -1.047343E+01  1.114778E-01 7.939165E+01 
1.053731E-05 -5.233144E+01  4.662158E-04 7.616044E+01  1.115047E-01 7.953218E+01  9.933572E-01 -1.034139E+01 
1.801562500E+02  9.973484E-01 -2.735717E+01  9.845388E-03 6.057559E+01  7.189200E-06 -1.514138E+02  1.954799E-05 1.486367E+02 
9.835505E-03 6.052752E+01  9.960344E-01 -3.212745E+01  4.199691E-04 7.801280E+01  4.029989E-04 7.028712E+01 
1.697050E-05 -9.230379E+01  4.092051E-04 7.162248E+01  9.917995E-01 -1.068896E+01  1.135601E-01 7.916745E+01 
3.058927E-05 8.254799E+01  4.282626E-04 7.039977E+01  1.139105E-01 7.917878E+01  9.921113E-01 -1.050784E+01 
1.838750000E+02  9.973986E-01 -2.794025E+01  1.012935E-02 5.931100E+01  2.113380E-05 5.783515E+01  2.244030E-05 5.029934E+01 
1.007398E-02 5.963037E+01  9.971865E-01 -3.269093E+01  4.196973E-04 7.099889E+01  4.670575E-04 6.930054E+01 
3.843827E-05 3.884211E+01  4.286990E-04 7.049011E+01  9.906872E-01 -1.096003E+01  1.157809E-01 7.894559E+01 
2.771400E-05 1.771327E+01  5.022229E-04 7.111250E+01  1.158042E-01 7.900825E+01  9.918111E-01 -1.068581E+01 
1.875937500E+02  9.968919E-01 -2.854040E+01  1.009116E-02 5.854472E+01  1.347949E-05 1.591632E+02  4.162257E-05 7.081692E+01 
1.007901E-02 5.850206E+01  9.946584E-01 -3.338173E+01  4.796883E-04 8.297259E+01  4.870441E-04 8.093563E+01 
3.406682E-05 1.240299E+02  5.140767E-04 8.173975E+01  9.891177E-01 -1.120581E+01  1.175318E-01 7.896978E+01 
4.648309E-05 7.201479E+01  5.200879E-04 7.960939E+01  1.175250E-01 7.898325E+01  9.902504E-01 -1.100020E+01 
1.913125000E+02  9.978149E-01 -2.900384E+01  1.032619E-02 5.830204E+01  2.905971E-05 -1.373327E+02  4.409652E-05 5.368878E+00 
1.028495E-02 5.846149E+01  9.963481E-01 -3.401962E+01  3.977647E-04 6.085209E+01  3.967895E-04 7.120285E+01 
2.137916E-05 1.565384E+02  4.000391E-04 5.535398E+01  9.887099E-01 -1.137019E+01  1.208084E-01 7.922215E+01 
4.681029E-05 -1.353713E+01  3.944981E-04 6.701235E+01  1.208663E-01 7.907819E+01  9.892136E-01 -1.112034E+01 
1.950312500E+02  9.960298E-01 -2.960099E+01  1.034333E-02 5.892975E+01  4.021638E-05 -1.442517E+02  1.165882E-05 1.771005E+02 
1.028080E-02 5.892319E+01  9.958202E-01 -3.469682E+01  4.673345E-04 7.901970E+01  4.798457E-04 8.066084E+01 
2.021590E-05 1.568887E+02  4.654706E-04 8.000402E+01  9.886969E-01 -1.155015E+01  1.235340E-01 7.860257E+01 
2.065370E-05 7.802599E+01  4.593265E-04 8.073114E+01  1.238013E-01 7.847884E+01  9.902148E-01 -1.126996E+01 
1.987500000E+02  9.960694E-01 -3.012554E+01  1.065291E-02 5.753241E+01  1.264680E-05 -1.376555E+02  1.939187E-05 -1.739408E+01 
1.056727E-02 5.767260E+01  9.950660E-01 -3.527552E+01  4.125846E-04 6.715372E+01  4.389403E-04 7.281785E+01 
1.363782E-05 3.124444E+01  3.688324E-04 6.491537E+01  9.888640E-01 -1.175635E+01  1.251697E-01 7.797969E+01 
5.618407E-05 -6.225754E+00  4.407167E-04 6.502262E+01  1.251456E-01 7.798437E+01  9.895930E-01 -1.151756E+01 
2.024687500E+02  9.950987E-01 -3.071575E+01  1.087403E-02 5.693975E+01  3.663701E-06 1.075628E+02  2.206857E-05 1.279860E+02 
1.079847E-02 5.673161E+01  9.958368E-01 -3.593299E+01  4.796322E-04 6.677012E+01  5.508900E-04 6.718036E+01 
2.213735E-05 -2.290421E+01  4.750010E-04 6.648302E+01  9.877091E-01 -1.206059E+01  1.270391E-01 7.786748E+01 
5.146344E-05 1.044845E+02  5.228939E-04 6.234177E+01  1.271635E-01 7.788516E+01  9.898877E-01 -1.174512E+01 
2.061875000E+02  9.940147E-01 -3.133012E+01  1.102851E-02 5.626789E+01  4.825769E-06 1.050847E+02  3.468935E-05 -1.112030E+01 
1.100503E-02 5.615035E+01  9.956637E-01 -3.648812E+01  5.139920E-04 6.706971E+01  5.139988E-04 7.105563E+01 
2.231872E-05 9.766507E+01  4.909550E-04 6.964888E+01  9.876324E-01 -1.219961E+01  1.296799E-01 7.797994E+01 
2.056238E-05 -6.116288E+00  5.302129E-04 6.895054E+01  1.300627E-01 7.800382E+01  9.878835E-01 -1.186155E+01 
2.099062500E+02  9.952712E-01 -3.171740E+01  1.118454E-02 5.531304E+01  1.507515E-05 -1.916020E+01  2.124320E-05 -1.783323E+02 
1.115324E-02 5.542534E+01  9.942166E-01 -3.715052E+01  4.701566E-04 7.209670E+01  5.043706E-04 6.889809E+01 
7.594141E-06 -6.203685E+01  4.714622E-04 7.097687E+01  9.896102E-01 -1.248151E+01  1.323499E-01 7.754976E+01 
3.180262E-05 -1.797207E+02  5.169954E-04 6.562481E+01  1.321647E-01 7.761757E+01  9.885315E-01 -1.209514E+01 
2.136250000E+02  9.937976E-01 -3.229412E+01  1.130222E-02 5.503217E+01  1.300580E-05 -1.648806E+02  9.603289E-06 -1.710837E+02 
1.124912E-02 5.479732E+01  9.945423E-01 -3.773555E+01  4.755300E-04 6.647016E+01  4.598123E-04 7.137550E+01 
3.119082E-05 -2.810358E+01  4.956092E-04 6.628970E+01  9.863368E-01 -1.263617E+01  1.343373E-01 7.761687E+01 
3.581007E-05 1.510375E+02  4.522211E-04 6.326520E+01  1.344447E-01 7.755950E+01  9.867419E-01 -1.219423E+01 
2.173437500E+02  9.946405E-01 -3.280424E+01  1.156797E-02 5.556096E+01  3.598213E-05 -1.791194E+02  1.738170E-05 -3.684313E+01 
1.147269E-02 5.553009E+01  9.936827E-01 -3.829506E+01  4.913215E-04 7.417256E+01  5.322706E-04 7.370047E+01 
4.783300E-05 -1.362390E+02  4.729553E-04 7.358785E+01  9.862144E-01 -1.283526E+01  1.364705E-01 7.723779E+01 
2.157430E-05 1.200527E+02  5.232529E-04 7.405138E+01  1.367648E-01 7.710445E+01  9.873081E-01 -1.247589E+01 
2.210625000E+02  9.958106E-01 -3.330976E+01  1.168659E-02 5.387668E+01  3.405446E-05 -1.642904E+02  1.912803E-05 -1.567159E+02 
1.165756E-02 5.401567E+01  9.942482E-01 -3.895285E+01  4.964880E-04 7.547827E+01  5.209162E-04 6.967101E+01 
4.384381E-05 1.347353E+02  4.659750E-04 7.347511E+01  9.863612E-01 -1.307486E+01  1.386317E-01 7.709653E+01 
1.651524E-05 1.705689E+02  5.332513E-04 7.003231E+01  1.390081E-01 7.699001E+01  9.854994E-01 -1.268960E+01 
2.247812500E+02  9.948289E-01 -3.388272E+01  1.181141E-02 5.357886E+01  3.342834E-05 1.613946E+02  1.717085E-05 -5.626646E+01 
1.176748E-02 5.371824E+01  9.948714E-01 -3.956736E+01  4.353497E-04 6.707305E+01  4.789855E-04 6.699331E+01 
2.226788E-05 1.370568E+02  4.377232E-04 6.930535E+01  9.860965E-01 -1.326839E+01  1.411770E-01 7.680529E+01 
2.293793E-05 2.633997E+01  5.007338E-04 6.807920E+01  1.414857E-01 7.668040E+01  9.860920E-01 -1.291708E+01 
2.285000000E+02  9.954527E-01 -3.444790E+01  1.195509E-02 5.271685E+01  2.576234E-05 -1.627817E+02  2.348950E-05 -1.708701E+01 
1.184876E-02 5.271170E+01  9.946289E-01 -4.009591E+01  5.226740E-04 6.840666E+01  5.387998E-04 6.723533E+01 
2.310519E-05 1.764864E+02  5.630531E-04 6.807524E+01  9.857880E-01 -1.352747E+01  1.432605E-01 7.642880E+01 
1.265539E-05 -1.432266E-01  5.278075E-04 6.635290E+01  1.433808E-01 7.646515E+01  9.855995E-01 -1.312883E+01 
2.322187500E+02  9.934598E-01 -3.508032E+01  1.216675E-02 5.236382E+01  1.797832E-05 -9.926068E+01  2.411129E-05 9.663850E+01 
1.211264E-02 5.244401E+01  9.939399E-01 -4.091199E+01  5.145038E-04 5.688086E+01  5.783189E-04 6.290509E+01 
2.795224E-05 -4.468238E+01  5.219126E-04 5.910188E+01  9.843437E-01 -1.394299E+01  1.444011E-01 7.623806E+01 
2.628344E-05 4.291192E+01  5.484502E-04 6.424033E+01  1.447654E-01 7.605097E+01  9.845538E-01 -1.343997E+01 
2.359375000E+02  9.950643E-01 -3.554982E+01  1.207000E-02 5.168233E+01  3.089849E-05 -7.738588E+01  2.595789E-05 -1.563016E+02 
1.202953E-02 5.165447E+01  9.932216E-01 -4.131301E+01  4.977040E-04 6.053279E+01  5.354615E-04 5.559241E+01 
2.126955E-05 -1.535800E+02  5.346520E-04 5.932931E+01  9.834307E-01 -1.397725E+01  1.469934E-01 7.650059E+01 
2.736417E-05 -1.571815E+02  5.576918E-04 5.626681E+01  1.472854E-01 7.654660E+01  9.826676E-01 -1.354544E+01 
2.396562500E+02  9.947114E-01 -3.601309E+01  1.232750E-02 5.105706E+01  3.515568E-05 1.786358E+02  4.290540E-06 -1.781154E+02 
1.228634E-02 5.128726E+01  9.944130E-01 -4.196813E+01  5.567423E-04 6.082024E+01  5.603424E-04 6.393806E+01 
1.723626E-05 -1.724371E+01  5.350658E-04 5.750694E+01  9.835547E-01 -1.411402E+01  1.504395E-01 7.590771E+01 
8.920847E-07 3.286381E+01  5.690171E-04 6.026778E+01  1.507522E-01 7.606698E+01  9.838611E-01 -1.373289E+01 
2.433750000E+02  9.951605E-01 -3.656698E+01  1.244971E-02 5.062169E+01  1.778821E-05 -4.497063E+01  6.177113E-05 8.310987E+01 
1.240489E-02 5.065050E+01  9.949945E-01 -4.254954E+01  5.152903E-04 6.659572E+01  5.612983E-04 6.489623E+01 
9.060308E-06 -8.493847E+01  5.389754E-04 6.633535E+01  9.841853E-01 -1.434053E+01  1.523772E-01 7.575457E+01 
5.886518E-05 9.171927E+01  5.609226E-04 6.585006E+01  1.522997E-01 7.562731E+01  9.839847E-01 -1.393268E+01 
2.470937500E+02  9.952520E-01 -3.711089E+01  1.271843E-02 5.014088E+01  2.263558E-05 -6.263791E+01  1.039307E-05 1.261333E+02 
1.264386E-02 5.019313E+01  9.951973E-01 -4.312916E+01  5.358147E-04 5.984542E+01  5.924818E-04 5.978561E+01 
2.258829E-05 -1.262424E+01  5.441915E-04 5.796842E+01  9.842572E-01 -1.449386E+01  1.549722E-01 7.582861E+01 
2.824392E-05 1.739963E+02  6.023298E-04 6.066282E+01  1.551022E-01 7.579082E+01  9.814391E-01 -1.410957E+01 
2.508125000E+02  9.951958E-01 -3.766742E+01  1.287664E-02 4.942660E+01  2.803357E-05 -4.652449E+01  9.675433E-06 -6.369716E+01 
1.279405E-02 4.958230E+01  9.949870E-01 -4.377737E+01  5.742608E-04 6.139506E+01  6.203410E-04 6.021726E+01 
1.019001E-05 -1.736064E+02  5.889423E-04 6.099415E+01  9.829288E-01 -1.469158E+01  1.574951E-01 7.555324E+01 
3.362469E-05 -1.156576E+02  6.335917E-04 5.951583E+01  1.576422E-01 7.562355E+01  9.820412E-01 -1.424039E+01 
2.545312500E+02  9.948142E-01 -3.806857E+01  1.300530E-02 4.895499E+01  1.506491E-05 1.907387E+01  5.666264E-06 -1.752272E+02 
1.298631E-02 4.903077E+01  9.948327E-01 -4.441988E+01  5.470258E-04 6.758120E+01  5.889760E-04 6.296410E+01 
1.864376E-05 1.057375E+02  5.783050E-04 6.498520E+01  9.833756E-01 -1.493278E+01  1.594988E-01 7.510613E+01 
3.348673E-06 1.049682E+02  6.198641E-04 6.415384E+01  1.596458E-01 7.501107E+01  9.823447E-01 -1.451370E+01 
2.582500000E+02  9.955314E-01 -3.866286E+01  1.309022E-02 4.860831E+01  1.266810E-05 1.235188E+02  6.946911E-06 -4.738552E+01 
1.298639E-02 4.864686E+01  9.943432E-01 -4.495636E+01  5.389913E-04 6.111339E+01  5.393535E-04 6.436547E+01 
1.185490E-05 3.983328E+01  5.495621E-04 6.397269E+01  9.827822E-01 -1.520128E+01  1.612902E-01 7.489768E+01 
1.366672E-05 -1.240924E+02  5.125143E-04 6.607809E+01  1.617194E-01 7.481440E+01  9.817077E-01 -1.476264E+01 
2.619687500E+02  9.954010E-01 -3.916580E+01  1.314233E-02 4.764921E+01  3.029794E-05 -1.329989E+02  1.267141E-05 1.349835E+02 
1.308162E-02 4.777663E+01  9.941271E-01 -4.553167E+01  5.502336E-04 7.148162E+01  6.088705E-04 6.411940E+01 
1.170621E-05 4.458834E+01  5.591414E-04 6.841315E+01  9.836518E-01 -1.537895E+01  1.638602E-01 7.463513E+01 
2.244554E-05 1.268794E+02  6.014123E-04 6.563434E+01  1.641410E-01 7.458788E+01  9.809704E-01 -1.494786E+01 
2.656875000E+02  9.957965E-01 -3.978241E+01  1.333425E-02 4.743950E+01  2.108868E-05 1.589975E+02  1.831951E-05 -1.260518E+02 
1.336118E-02 4.739387E+01  9.943002E-01 -4.617547E+01  5.612764E-04 6.174706E+01  5.996065E-04 6.291430E+01 
1.009171E-05 8.709855E+01  5.734606E-04 6.305774E+01  9.822291E-01 -1.555983E+01  1.661184E-01 7.440664E+01 
3.943599E-05 -7.712384E+01  5.995847E-04 6.307750E+01  1.661993E-01 7.456024E+01  9.817412E-01 -1.516849E+01 
2.694062500E+02  9.951156E-01 -4.024075E+01  1.351905E-02 4.662010E+01  3.008408E-05 4.342832E+01  1.389408E-05 -1.434060E+02 
1.349951E-02 4.665890E+01  9.951325E-01 -4.673140E+01  5.750749E-04 6.300141E+01  6.059492E-04 6.105033E+01 
4.735847E-05 9.132754E+01  5.595368E-04 6.325510E+01  9.816278E-01 -1.582844E+01  1.685237E-01 7.424744E+01 
2.543616E-05 -1.670016E+02  6.310918E-04 6.224415E+01  1.685706E-01 7.417242E+01  9.819946E-01 -1.539868E+01 
2.731250000E+02  9.953247E-01 -4.074493E+01  1.369596E-02 4.613823E+01  9.285492E-06 -1.318647E+02  1.121877E-05 -3.596444E+01 
1.359591E-02 4.622336E+01  9.940224E-01 -4.735029E+01  5.684000E-04 5.967372E+01  6.126809E-04 5.495738E+01 
2.403398E-05 8.902325E+01  5.774784E-04 6.148397E+01  9.827423E-01 -1.607092E+01  1.701284E-01 7.389009E+01 
1.966763E-05 -1.466536E+02  6.254490E-04 5.510107E+01  1.707908E-01 7.384488E+01  9.803911E-01 -1.560849E+01 
2.768437500E+02  9.948544E-01 -4.135736E+01  1.376570E-02 4.537111E+01  1.674287E-05 -9.807060E+01  2.582295E-05 -1.433781E+02 
1.372972E-02 4.548875E+01  9.950175E-01 -4.797962E+01  5.752358E-04 6.392638E+01  6.538792E-04 6.199068E+01 
1.748186E-05 6.608363E+00  5.624545E-04 6.460924E+01  9.816557E-01 -1.629623E+01  1.726875E-01 7.367660E+01 
2.744961E-05 -8.945562E+01  6.323945E-04 6.220120E+01  1.726088E-01 7.372580E+01  9.808002E-01 -1.581248E+01 
2.805625000E+02  9.946398E-01 -4.183718E+01  1.390829E-02 4.513636E+01  2.516156E-05 -8.724362E+01  4.012996E-06 -1.880349E+01 
1.383484E-02 4.525365E+01  9.932309E-01 -4.854410E+01  6.496180E-04 6.319077E+01  7.373214E-04 6.393615E+01 
4.142990E-05 -1.424809E+02  6.595266E-04 6.151587E+01  9.816088E-01 -1.649054E+01  1.753670E-01 7.364925E+01 
1.387816E-06 9.073751E+01  7.265985E-04 6.419788E+01  1.754414E-01 7.366704E+01  9.804683E-01 -1.606688E+01 
2.842812500E+02  9.958458E-01 -4.236444E+01  1.408940E-02 4.442039E+01  3.455409E-05 1.467707E+02  2.714073E-05 -1.089514E+02 
1.397946E-02 4.455131E+01  9.936971E-01 -4.914688E+01  5.767356E-04 6.311091E+01  5.996367E-04 6.074710E+01 
1.790660E-05 -1.606602E+02  5.629707E-04 6.275550E+01  9.802090E-01 -1.663193E+01  1.775200E-01 7.331157E+01 
1.238660E-05 -3.083813E+01  6.096789E-04 6.194810E+01  1.779038E-01 7.327330E+01  9.798045E-01 -1.623800E+01 
2.880000000E+02  9.949384E-01 -4.285461E+01  1.435736E-02 4.391349E+01  1.303579E-05 8.023051E+01  1.296374E-05 -3.114343E+01 
1.425632E-02 4.405194E+01  9.939662E-01 -4.969755E+01  6.605517E-04 6.134364E+01  6.560408E-04 5.938702E+01 
3.864533E-05 3.880945E+01  6.388756E-04 6.022193E+01  9.796063E-01 -1.686136E+01  1.790160E-01 7.314800E+01 