! Matrix data file written by TouchstoneData, EPCOS AG
! FILENAME: "ansys_B4404_02_NB_DOWN25.s4p"
! COMMENT: "(B4404_02_NB_DOWN25.s4p) EPCOS AG 4/20/2013"
! INFO: nport=4, nfreq=1601
! DATE: "Fri Jun 21 16:18:15 2013"
! USER: "Sergey Rostovtsev"
!
! port | pin | signal
! -----|-----|--------
!   1  |  3  |  TX in
!   2  |  6  |  Ant in/out
!   3  |  8  |  RX out1
!   4  |  1  |  RX out2
! --------------------
! 
# MHZ S MA R 50
! freq  magS11 angS11  magS12 angS12  magS13 angS13  magS14 angS14  ...
7.300000000E+02  9.688497E-01 -1.029271E+02  5.337437E-03 -6.290729E+00  1.689767E-04 -1.759916E+02  3.272622E-04 -1.798479E+02 
 5.311447E-03 -6.168498E+00  9.662566E-01 -1.024344E+02  7.141389E-04 -1.761638E+02  8.850721E-04 1.575120E+02 
 1.718527E-04 1.793739E+02  7.463611E-04 -1.737719E+02  9.780564E-01 -6.481831E+01  2.109366E-02 2.370365E+01 
 3.086000E-04 -1.701237E+02  8.727395E-04 1.588127E+02  2.116917E-02 2.356592E+01  9.750797E-01 -6.357287E+01 
7.301250000E+02  9.688406E-01 -1.029617E+02  5.337064E-03 -6.493245E+00  1.925895E-04 -1.740319E+02  3.148693E-04 -1.790954E+02 
 5.317549E-03 -6.358768E+00  9.663707E-01 -1.024533E+02  7.215564E-04 -1.740553E+02  8.509506E-04 1.583161E+02 
 1.947387E-04 -1.738010E+02  7.566477E-04 -1.727462E+02  9.778264E-01 -6.484716E+01  2.097820E-02 2.420255E+01 
 2.988111E-04 -1.797511E+02  8.460316E-04 1.575132E+02  2.103608E-02 2.396796E+01  9.751567E-01 -6.362047E+01 
7.302500000E+02  9.688738E-01 -1.029623E+02  5.341870E-03 -6.329043E+00  1.797222E-04 -1.682089E+02  3.178675E-04 1.767915E+02 
 5.315912E-03 -5.865638E+00  9.662460E-01 -1.024905E+02  7.401588E-04 -1.741087E+02  8.509156E-04 1.596411E+02 
 1.580517E-04 -1.774935E+02  7.370143E-04 -1.725295E+02  9.780665E-01 -6.489883E+01  2.096772E-02 2.465103E+01 
 3.207877E-04 1.782431E+02  8.075963E-04 1.589981E+02  2.103907E-02 2.450976E+01  9.752967E-01 -6.365599E+01 
7.303750000E+02  9.689103E-01 -1.029825E+02  5.337969E-03 -6.523299E+00  1.820930E-04 -1.746329E+02  3.060196E-04 1.788097E+02 
 5.311365E-03 -6.358583E+00  9.663212E-01 -1.025297E+02  7.524470E-04 -1.754198E+02  8.521523E-04 1.613252E+02 
 1.626119E-04 -1.720796E+02  7.448892E-04 -1.730897E+02  9.776748E-01 -6.492434E+01  2.093805E-02 2.487172E+01 
 2.921176E-04 -1.777090E+02  8.265332E-04 1.618437E+02  2.101637E-02 2.468293E+01  9.752939E-01 -6.368620E+01 
7.305000000E+02  9.689891E-01 -1.029982E+02  5.348042E-03 -6.643331E+00  2.002558E-04 1.798983E+02  3.191259E-04 1.768665E+02 
 5.298878E-03 -6.464554E+00  9.660085E-01 -1.025763E+02  7.362999E-04 -1.726342E+02  8.641745E-04 1.606605E+02 
 1.728811E-04 1.765385E+02  7.492885E-04 -1.710151E+02  9.778510E-01 -6.494681E+01  2.082603E-02 2.484097E+01 
 3.241667E-04 -1.764266E+02  8.518347E-04 1.619439E+02  2.084257E-02 2.467700E+01  9.751111E-01 -6.372017E+01 
7.306250000E+02  9.688934E-01 -1.030170E+02  5.321508E-03 -6.611744E+00  1.926003E-04 -1.752035E+02  3.147018E-04 -1.782158E+02 
 5.292878E-03 -6.572339E+00  9.654604E-01 -1.026016E+02  7.547678E-04 -1.708872E+02  8.302709E-04 1.606472E+02 
 1.770504E-04 -1.788505E+02  7.646932E-04 -1.719951E+02  9.776454E-01 -6.496930E+01  2.048761E-02 2.512746E+01 
 3.174667E-04 1.765852E+02  8.159533E-04 1.593238E+02  2.057282E-02 2.500693E+01  9.751662E-01 -6.375893E+01 
7.307500000E+02  9.689544E-01 -1.030493E+02  5.312540E-03 -6.394018E+00  1.767001E-04 1.720553E+02  3.074136E-04 1.767698E+02 
 5.289057E-03 -6.308978E+00  9.650765E-01 -1.026111E+02  7.986618E-04 -1.686409E+02  8.115013E-04 1.587828E+02 
 1.767166E-04 -1.790415E+02  7.890188E-04 -1.696218E+02  9.777406E-01 -6.498491E+01  2.017208E-02 2.593501E+01 
 3.247250E-04 1.788595E+02  8.092850E-04 1.617221E+02  2.025543E-02 2.572943E+01  9.748809E-01 -6.378139E+01 
7.308750000E+02  9.689523E-01 -1.030853E+02  5.316699E-03 -6.445653E+00  1.618599E-04 -1.737183E+02  3.244817E-04 -1.742570E+02 
 5.274187E-03 -6.615013E+00  9.650330E-01 -1.026159E+02  8.201387E-04 -1.699099E+02  7.632198E-04 1.629074E+02 
 1.474882E-04 1.748819E+02  8.448242E-04 -1.697593E+02  9.780432E-01 -6.500785E+01  1.998676E-02 2.714178E+01 
 3.300741E-04 1.780384E+02  7.670063E-04 1.621798E+02  2.004129E-02 2.703456E+01  9.749738E-01 -6.381715E+01 
7.310000000E+02  9.686332E-01 -1.031125E+02  5.289065E-03 -6.524360E+00  1.670740E-04 -1.713763E+02  2.997568E-04 1.798940E+02 
 5.271705E-03 -6.470120E+00  9.649234E-01 -1.026292E+02  8.378104E-04 -1.719099E+02  7.639093E-04 1.648976E+02 
 1.711156E-04 -1.731311E+02  8.326638E-04 -1.737120E+02  9.783809E-01 -6.502950E+01  2.002061E-02 2.837107E+01 
 3.311225E-04 -1.746429E+02  7.407527E-04 1.650815E+02  2.007685E-02 2.817248E+01  9.750473E-01 -6.382231E+01 
7.311250000E+02  9.688269E-01 -1.031350E+02  5.266344E-03 -6.687540E+00  1.788769E-04 -1.782132E+02  3.160955E-04 1.798124E+02 
 5.253916E-03 -6.694423E+00  9.650428E-01 -1.026399E+02  8.418534E-04 -1.735318E+02  7.848074E-04 1.682688E+02 
 1.649198E-04 -1.653714E+02  8.253767E-04 -1.728143E+02  9.787067E-01 -6.506910E+01  2.015196E-02 2.946209E+01 
 3.400897E-04 -1.751198E+02  7.796179E-04 1.671595E+02  2.021947E-02 2.932706E+01  9.752568E-01 -6.385598E+01 
7.312500000E+02  9.688909E-01 -1.031660E+02  5.289851E-03 -6.330822E+00  1.626219E-04 -1.799776E+02  3.053560E-04 -1.757803E+02 
 5.247025E-03 -6.368046E+00  9.653513E-01 -1.026369E+02  8.575761E-04 -1.740202E+02  7.873235E-04 1.693857E+02 
 1.727439E-04 -1.745485E+02  8.873545E-04 -1.733755E+02  9.787826E-01 -6.512248E+01  2.036865E-02 3.028322E+01 
 3.106438E-04 -1.762748E+02  7.703068E-04 1.671693E+02  2.041488E-02 3.011787E+01  9.754931E-01 -6.389250E+01 
7.313750000E+02  9.688212E-01 -1.031935E+02  5.278675E-03 -6.394381E+00  1.534381E-04 -1.790186E+02  2.883412E-04 -1.754838E+02 
 5.252196E-03 -6.353230E+00  9.657139E-01 -1.026585E+02  8.608919E-04 -1.749697E+02  8.066311E-04 1.682385E+02 
 1.857093E-04 1.799926E+02  8.486637E-04 -1.747292E+02  9.790052E-01 -6.516927E+01  2.058631E-02 3.066451E+01 
 3.131306E-04 1.778679E+02  7.838081E-04 1.680909E+02  2.063907E-02 3.053131E+01  9.761595E-01 -6.394418E+01 
7.315000000E+02  9.689557E-01 -1.032230E+02  5.294739E-03 -6.423590E+00  1.701794E-04 1.789731E+02  2.965984E-04 1.781848E+02 
 5.275102E-03 -6.245011E+00  9.663250E-01 -1.026819E+02  8.169975E-04 -1.730753E+02  8.022235E-04 1.695313E+02 
 1.769585E-04 -1.795721E+02  8.293922E-04 -1.744371E+02  9.791325E-01 -6.523110E+01  2.076446E-02 3.090949E+01 
 3.297200E-04 1.772237E+02  8.198969E-04 1.721691E+02  2.081381E-02 3.078343E+01  9.764209E-01 -6.398408E+01 
7.316250000E+02  9.693104E-01 -1.032510E+02  5.288141E-03 -6.570970E+00  1.366179E-04 1.796181E+02  3.081497E-04 -1.792537E+02 
 5.244414E-03 -6.352433E+00  9.667966E-01 -1.027205E+02  8.295899E-04 -1.729049E+02  8.060293E-04 1.692206E+02 
 1.726060E-04 1.776697E+02  8.077671E-04 -1.730464E+02  9.790087E-01 -6.525715E+01  2.085154E-02 3.132934E+01 
 3.203503E-04 -1.744954E+02  8.244163E-04 1.718366E+02  2.090690E-02 3.119149E+01  9.763479E-01 -6.405622E+01 
7.317500000E+02  9.691409E-01 -1.032833E+02  5.270921E-03 -6.462612E+00  2.044140E-04 -1.765715E+02  3.369398E-04 -1.784695E+02 
 5.261884E-03 -6.300288E+00  9.670145E-01 -1.027604E+02  8.683336E-04 -1.708301E+02  7.912102E-04 1.709425E+02 
 1.748847E-04 -1.758963E+02  8.419042E-04 -1.722109E+02  9.791359E-01 -6.527405E+01  2.104966E-02 3.165712E+01 
 3.165723E-04 -1.791122E+02  7.870898E-04 1.700546E+02  2.109646E-02 3.152595E+01  9.762487E-01 -6.409998E+01 
7.318750000E+02  9.690144E-01 -1.033180E+02  5.274239E-03 -6.782076E+00  1.810981E-04 -1.670846E+02  3.183871E-04 1.796154E+02 
 5.245833E-03 -6.181468E+00  9.671253E-01 -1.028054E+02  8.885787E-04 -1.726438E+02  7.852824E-04 1.709181E+02 
 1.585583E-04 -1.799275E+02  8.755635E-04 -1.701245E+02  9.791152E-01 -6.531764E+01  2.115902E-02 3.182932E+01 
 3.198328E-04 -1.783212E+02  8.243133E-04 1.746349E+02  2.124347E-02 3.174793E+01  9.760022E-01 -6.414116E+01 
7.320000000E+02  9.687963E-01 -1.033454E+02  5.271703E-03 -6.849279E+00  1.606264E-04 -1.685073E+02  3.323679E-04 -1.776526E+02 
 5.249051E-03 -6.495713E+00  9.673676E-01 -1.028539E+02  9.361804E-04 -1.725364E+02  8.176894E-04 1.750656E+02 
 1.857277E-04 -1.713200E+02  8.912203E-04 -1.728031E+02  9.790017E-01 -6.536337E+01  2.132840E-02 3.204521E+01 
 3.135464E-04 1.781611E+02  8.104002E-04 1.755405E+02  2.137173E-02 3.200462E+01  9.756696E-01 -6.417326E+01 
7.321250000E+02  9.689731E-01 -1.033673E+02  5.303398E-03 -6.827866E+00  1.670281E-04 -1.777676E+02  3.261707E-04 -1.782539E+02 
 5.261681E-03 -6.692957E+00  9.674601E-01 -1.028822E+02  9.039313E-04 -1.741945E+02  8.627609E-04 1.771784E+02 
 1.738947E-04 1.779251E+02  9.406912E-04 -1.726520E+02  9.789858E-01 -6.540126E+01  2.149567E-02 3.234738E+01 
 3.215827E-04 1.798301E+02  8.593734E-04 1.777078E+02  2.158044E-02 3.227595E+01  9.754843E-01 -6.420798E+01 
7.322500000E+02  9.689116E-01 -1.033941E+02  5.247881E-03 -6.892242E+00  1.641318E-04 -1.739118E+02  3.155060E-04 -1.794035E+02 
 5.237386E-03 -6.721469E+00  9.674560E-01 -1.029195E+02  9.362986E-04 -1.749972E+02  8.845517E-04 1.789620E+02 
 1.637339E-04 -1.755354E+02  9.560931E-04 -1.755769E+02  9.793953E-01 -6.543341E+01  2.173952E-02 3.243114E+01 
 3.167589E-04 1.787286E+02  8.675385E-04 1.786745E+02  2.181870E-02 3.227076E+01  9.752796E-01 -6.422132E+01 
7.323750000E+02  9.688299E-01 -1.034301E+02  5.319114E-03 -6.857414E+00  1.799155E-04 -1.743475E+02  3.179095E-04 1.791864E+02 
 5.267274E-03 -6.751887E+00  9.676088E-01 -1.029451E+02  9.545251E-04 -1.755549E+02  9.299552E-04 1.773487E+02 
 1.673183E-04 -1.721206E+02  9.565288E-04 -1.758102E+02  9.792240E-01 -6.547536E+01  2.197852E-02 3.225771E+01 
 3.427282E-04 -1.763101E+02  9.135341E-04 1.767424E+02  2.205875E-02 3.226364E+01  9.755770E-01 -6.423136E+01 
7.325000000E+02  9.687171E-01 -1.034395E+02  5.268080E-03 -6.882716E+00  1.882657E-04 -1.723722E+02  3.451071E-04 -1.776049E+02 
 5.247621E-03 -6.860520E+00  9.677819E-01 -1.029921E+02  9.637687E-04 -1.758286E+02  9.429666E-04 1.738662E+02 
 1.900176E-04 -1.731172E+02  9.694499E-04 -1.766965E+02  9.793754E-01 -6.552865E+01  2.213322E-02 3.190303E+01 
 3.379237E-04 1.796197E+02  9.576724E-04 1.757847E+02  2.215219E-02 3.193158E+01  9.758393E-01 -6.424657E+01 
7.326250000E+02  9.686150E-01 -1.034798E+02  5.255338E-03 -7.071760E+00  1.763964E-04 -1.797510E+02  3.199959E-04 1.785132E+02 
 5.216616E-03 -6.722311E+00  9.682248E-01 -1.030382E+02  9.841947E-04 -1.771720E+02  9.646695E-04 1.747304E+02 
 1.654491E-04 1.768180E+02  9.695711E-04 -1.784230E+02  9.791246E-01 -6.555946E+01  2.217101E-02 3.171108E+01 
 3.411112E-04 1.777568E+02  9.598198E-04 1.740053E+02  2.222516E-02 3.170858E+01  9.761763E-01 -6.429209E+01 
7.327500000E+02  9.689507E-01 -1.034938E+02  5.262801E-03 -6.744439E+00  1.779070E-04 -1.731433E+02  3.211243E-04 -1.783331E+02 
 5.222881E-03 -6.647479E+00  9.681465E-01 -1.030678E+02  9.778426E-04 -1.789599E+02  9.296284E-04 1.723800E+02 
 1.679568E-04 1.730420E+02  9.744632E-04 -1.784099E+02  9.788186E-01 -6.559171E+01  2.230154E-02 3.152752E+01 
 3.237364E-04 -1.766050E+02  9.912049E-04 1.721648E+02  2.234339E-02 3.155503E+01  9.768622E-01 -6.434391E+01 
7.328750000E+02  9.689861E-01 -1.035189E+02  5.249349E-03 -6.762998E+00  1.788843E-04 -1.732390E+02  3.120689E-04 1.794057E+02 
 5.212576E-03 -6.800671E+00  9.684460E-01 -1.031127E+02  9.502827E-04 -1.795632E+02  9.250114E-04 1.721879E+02 
 1.523729E-04 -1.793880E+02  9.914637E-04 1.799726E+02  9.789269E-01 -6.562335E+01  2.234017E-02 3.137226E+01 
 3.148783E-04 -1.753471E+02  9.816059E-04 1.723287E+02  2.241744E-02 3.135763E+01  9.767908E-01 -6.439226E+01 
7.330000000E+02  9.690970E-01 -1.035780E+02  5.251344E-03 -6.919333E+00  1.688419E-04 -1.754306E+02  3.122369E-04 1.765372E+02 
 5.222783E-03 -6.741195E+00  9.686786E-01 -1.031506E+02  9.473443E-04 -1.795657E+02  9.586313E-04 1.714859E+02 
 1.658507E-04 -1.730255E+02  9.515175E-04 1.794880E+02  9.790523E-01 -6.564821E+01  2.243735E-02 3.116091E+01 
 3.359454E-04 1.782978E+02  9.554860E-04 1.746238E+02  2.250672E-02 3.111890E+01  9.769588E-01 -6.444237E+01 
7.331250000E+02  9.689570E-01 -1.036088E+02  5.243359E-03 -6.902867E+00  1.702218E-04 1.786958E+02  3.078462E-04 -1.785245E+02 
 5.212029E-03 -6.922569E+00  9.686919E-01 -1.032065E+02  9.606723E-04 1.799735E+02  9.488524E-04 1.708920E+02 
 1.596774E-04 -1.762283E+02  9.348038E-04 1.789203E+02  9.787333E-01 -6.567609E+01  2.250962E-02 3.086278E+01 
 3.233805E-04 1.787747E+02  9.899757E-04 1.713656E+02  2.254526E-02 3.090053E+01  9.768064E-01 -6.447474E+01 
7.332500000E+02  9.684970E-01 -1.036401E+02  5.254920E-03 -6.870039E+00  1.871071E-04 1.759836E+02  3.108259E-04 1.765764E+02 
 5.229697E-03 -6.922357E+00  9.689747E-01 -1.032425E+02  9.289653E-04 -1.792911E+02  9.638744E-04 1.708703E+02 
 2.073955E-04 1.750359E+02  9.418992E-04 -1.795600E+02  9.789008E-01 -6.573242E+01  2.251405E-02 3.049732E+01 
 3.032307E-04 1.765894E+02  9.507546E-04 1.712025E+02  2.258723E-02 3.050244E+01  9.769639E-01 -6.452300E+01 
7.333750000E+02  9.686231E-01 -1.036456E+02  5.270443E-03 -7.007512E+00  1.705201E-04 1.773520E+02  3.119607E-04 1.776038E+02 
 5.234668E-03 -6.735970E+00  9.688591E-01 -1.033047E+02  9.656408E-04 1.799157E+02  9.487076E-04 1.712141E+02 
 1.470223E-04 1.761594E+02  9.745746E-04 -1.795034E+02  9.791995E-01 -6.574579E+01  2.249379E-02 3.036347E+01 
 3.109588E-04 -1.786376E+02  9.646782E-04 1.733149E+02  2.252029E-02 3.037573E+01  9.768959E-01 -6.455865E+01 
7.335000000E+02  9.685084E-01 -1.036700E+02  5.270983E-03 -7.354727E+00  1.974055E-04 1.745902E+02  3.159991E-04 -1.782988E+02 
 5.232804E-03 -7.015724E+00  9.685626E-01 -1.033358E+02  9.626758E-04 1.788317E+02  9.487173E-04 1.723155E+02 
 1.679042E-04 1.743783E+02  9.901909E-04 1.797340E+02  9.791975E-01 -6.577805E+01  2.244669E-02 3.022903E+01 
 3.041556E-04 -1.740778E+02  9.611880E-04 1.735922E+02  2.250297E-02 3.029590E+01  9.772489E-01 -6.459309E+01 
7.336250000E+02  9.683922E-01 -1.037052E+02  5.244593E-03 -7.294410E+00  1.682834E-04 -1.711177E+02  3.256020E-04 1.794181E+02 
 5.206712E-03 -7.012782E+00  9.683871E-01 -1.033940E+02  9.839467E-04 1.793080E+02  9.684609E-04 1.726455E+02 
 1.635630E-04 -1.729261E+02  9.683594E-04 1.798909E+02  9.791759E-01 -6.582478E+01  2.241206E-02 3.014908E+01 
 3.296867E-04 -1.696085E+02  9.584340E-04 1.715887E+02  2.248096E-02 3.023881E+01  9.771135E-01 -6.465082E+01 
7.337500000E+02  9.683021E-01 -1.037338E+02  5.226560E-03 -7.369598E+00  1.630811E-04 -1.730569E+02  2.955226E-04 -1.784255E+02 
 5.195091E-03 -7.358999E+00  9.680730E-01 -1.034425E+02  9.701444E-04 1.783971E+02  9.609164E-04 1.728347E+02 
 1.740299E-04 1.752275E+02  9.771567E-04 1.794061E+02  9.790797E-01 -6.586237E+01  2.243660E-02 3.007649E+01 
 3.343272E-04 -1.769112E+02  9.755547E-04 1.733056E+02  2.251329E-02 3.014386E+01  9.773569E-01 -6.469470E+01 
7.338750000E+02  9.680015E-01 -1.037496E+02  5.222265E-03 -7.309339E+00  1.718626E-04 1.790271E+02  3.127781E-04 -1.759200E+02 
 5.198563E-03 -7.203271E+00  9.679153E-01 -1.034826E+02  9.858082E-04 1.790361E+02  9.488019E-04 1.719081E+02 
 1.825644E-04 -1.735587E+02  9.888928E-04 1.782828E+02  9.793077E-01 -6.590138E+01  2.241321E-02 3.004407E+01 
 3.143226E-04 1.790790E+02  9.785540E-04 1.725604E+02  2.247724E-02 3.001099E+01  9.771720E-01 -6.473491E+01 
7.340000000E+02  9.677907E-01 -1.037433E+02  5.216877E-03 -7.164350E+00  1.904366E-04 -1.666744E+02  3.502083E-04 -1.799768E+02 
 5.168400E-03 -6.961317E+00  9.679125E-01 -1.035239E+02  9.863747E-04 1.783158E+02  9.732812E-04 1.721583E+02 
 1.707167E-04 -1.697815E+02  9.872550E-04 1.799082E+02  9.792877E-01 -6.592313E+01  2.239605E-02 3.002653E+01 
 3.479754E-04 -1.785354E+02  9.859048E-04 1.734492E+02  2.249455E-02 3.001981E+01  9.773815E-01 -6.478270E+01 
7.341250000E+02  9.678631E-01 -1.037481E+02  5.184500E-03 -7.215738E+00  1.912390E-04 -1.751282E+02  3.190159E-04 -1.786294E+02 
 5.160902E-03 -7.034740E+00  9.676851E-01 -1.035650E+02  1.011018E-03 1.771818E+02  9.955684E-04 1.728911E+02 
 1.916026E-04 -1.768819E+02  1.009134E-03 1.782705E+02  9.792655E-01 -6.596069E+01  2.243742E-02 3.001296E+01 
 3.245617E-04 -1.780400E+02  9.675399E-04 1.727416E+02  2.251034E-02 3.005101E+01  9.774258E-01 -6.482372E+01 
7.342500000E+02  9.682796E-01 -1.037562E+02  5.210430E-03 -7.462894E+00  1.565164E-04 -1.746366E+02  3.013531E-04 1.792082E+02 
 5.171390E-03 -7.123838E+00  9.676934E-01 -1.035920E+02  1.040762E-03 1.777241E+02  1.001763E-03 1.734772E+02 
 1.657064E-04 -1.732259E+02  1.023488E-03 1.766990E+02  9.793873E-01 -6.600940E+01  2.246985E-02 2.990504E+01 
 3.244892E-04 -1.761892E+02  1.007835E-03 1.728097E+02  2.256856E-02 2.995067E+01  9.773765E-01 -6.487660E+01 
7.343750000E+02  9.682937E-01 -1.037814E+02  5.205912E-03 -7.288963E+00  1.880327E-04 -1.718416E+02  3.319742E-04 -1.768497E+02 
 5.181830E-03 -7.402912E+00  9.675699E-01 -1.036258E+02  1.058430E-03 1.753276E+02  9.948629E-04 1.727711E+02 
 1.647979E-04 -1.735584E+02  1.051976E-03 1.754616E+02  9.794253E-01 -6.606285E+01  2.254765E-02 2.980970E+01 
 2.970117E-04 1.769658E+02  1.023619E-03 1.730120E+02  2.263174E-02 2.983938E+01  9.774707E-01 -6.494192E+01 
7.345000000E+02  9.683891E-01 -1.038152E+02  5.208662E-03 -7.313453E+00  1.779283E-04 1.761698E+02  3.106321E-04 1.787039E+02 
 5.163374E-03 -7.368820E+00  9.678279E-01 -1.036597E+02  1.036131E-03 1.739577E+02  1.001071E-03 1.725789E+02 
 1.452631E-04 -1.789053E+02  1.037089E-03 1.734331E+02  9.796251E-01 -6.610846E+01  2.259449E-02 2.967679E+01 
 3.581789E-04 -1.775227E+02  1.004095E-03 1.735203E+02  2.269327E-02 2.971619E+01  9.769299E-01 -6.497056E+01 
7.346250000E+02  9.681134E-01 -1.038260E+02  5.201239E-03 -7.438447E+00  1.491813E-04 -1.759197E+02  3.196423E-04 1.788861E+02 
 5.159092E-03 -7.170273E+00  9.677897E-01 -1.037009E+02  1.005239E-03 1.722172E+02  1.017176E-03 1.718645E+02 
 1.819619E-04 1.755538E+02  1.040167E-03 1.731191E+02  9.795903E-01 -6.615683E+01  2.264337E-02 2.933578E+01 
 3.511263E-04 1.784099E+02  1.036796E-03 1.709855E+02  2.274075E-02 2.945693E+01  9.768925E-01 -6.499755E+01 
7.347500000E+02  9.685035E-01 -1.038452E+02  5.200915E-03 -7.474710E+00  1.900763E-04 -1.760078E+02  3.430612E-04 1.763624E+02 
 5.165408E-03 -7.223359E+00  9.679169E-01 -1.037275E+02  9.880067E-04 1.731449E+02  1.032384E-03 1.719530E+02 
 1.973921E-04 -1.790914E+02  1.006575E-03 1.722547E+02  9.795544E-01 -6.619321E+01  2.264636E-02 2.904044E+01 
 3.374415E-04 1.798574E+02  1.009951E-03 1.723298E+02  2.274914E-02 2.911775E+01  9.768824E-01 -6.502497E+01 
7.348750000E+02  9.688667E-01 -1.038732E+02  5.167758E-03 -7.230552E+00  1.705039E-04 -1.781059E+02  3.132928E-04 1.748094E+02 
 5.169703E-03 -7.425729E+00  9.679158E-01 -1.037725E+02  1.001433E-03 1.729209E+02  1.021709E-03 1.739020E+02 
 1.633910E-04 -1.785679E+02  9.801627E-04 1.732031E+02  9.795083E-01 -6.623947E+01  2.259668E-02 2.868818E+01 
 3.400719E-04 1.764718E+02  1.025211E-03 1.728462E+02  2.270159E-02 2.875767E+01  9.766888E-01 -6.506576E+01 
7.350000000E+02  9.686916E-01 -1.039065E+02  5.170378E-03 -7.895382E+00  1.861175E-04 -1.764096E+02  3.193929E-04 -1.780112E+02 
 5.175501E-03 -7.274713E+00  9.679663E-01 -1.038239E+02  1.012714E-03 1.728656E+02  1.032169E-03 1.707184E+02 
 1.758244E-04 1.729600E+02  9.791991E-04 1.718020E+02  9.791202E-01 -6.627729E+01  2.251631E-02 2.847440E+01 
 3.200319E-04 1.724784E+02  1.040931E-03 1.726295E+02  2.261128E-02 2.849320E+01  9.764836E-01 -6.508293E+01 
7.351250000E+02  9.686872E-01 -1.039223E+02  5.155321E-03 -7.555513E+00  1.557588E-04 -1.763232E+02  3.252770E-04 -1.792392E+02 
 5.138224E-03 -7.671404E+00  9.681400E-01 -1.038728E+02  9.936393E-04 1.720931E+02  1.059976E-03 1.712213E+02 
 1.673651E-04 -1.742374E+02  1.006201E-03 1.715092E+02  9.789445E-01 -6.632043E+01  2.245162E-02 2.818248E+01 
 3.023898E-04 -1.750023E+02  1.034541E-03 1.720317E+02  2.255564E-02 2.829305E+01  9.771005E-01 -6.514340E+01 
7.352500000E+02  9.684377E-01 -1.039454E+02  5.163219E-03 -7.390094E+00  1.645054E-04 1.788094E+02  3.163538E-04 1.749510E+02 
 5.122915E-03 -7.424619E+00  9.681061E-01 -1.039275E+02  9.657068E-04 1.718068E+02  1.059942E-03 1.710979E+02 
 1.879002E-04 1.776572E+02  9.749121E-04 1.721003E+02  9.792643E-01 -6.634631E+01  2.239613E-02 2.807354E+01 
 3.294340E-04 1.750422E+02  1.061055E-03 1.709479E+02  2.247900E-02 2.823386E+01  9.774422E-01 -6.517554E+01 
7.353750000E+02  9.686087E-01 -1.039746E+02  5.146361E-03 -7.457617E+00  1.827352E-04 -1.700715E+02  3.107468E-04 -1.747968E+02 
 5.118050E-03 -7.463681E+00  9.680970E-01 -1.039768E+02  9.755871E-04 1.710570E+02  1.050881E-03 1.707610E+02 
 1.951226E-04 -1.781608E+02  9.936561E-04 1.704538E+02  9.787551E-01 -6.639300E+01  2.235025E-02 2.804828E+01 
 2.999594E-04 -1.726653E+02  1.055552E-03 1.704839E+02  2.245014E-02 2.810121E+01  9.775995E-01 -6.522179E+01 
7.355000000E+02  9.684411E-01 -1.039916E+02  5.111141E-03 -7.685732E+00  1.903029E-04 1.781401E+02  3.071486E-04 1.794946E+02 
 5.129108E-03 -7.718785E+00  9.679920E-01 -1.040164E+02  9.672253E-04 1.716591E+02  1.066059E-03 1.704618E+02 
 1.911129E-04 1.757828E+02  9.553581E-04 1.713193E+02  9.789002E-01 -6.642972E+01  2.227102E-02 2.785216E+01 
 3.099437E-04 -1.778983E+02  1.058241E-03 1.709180E+02  2.241282E-02 2.793957E+01  9.771820E-01 -6.526225E+01 
7.356250000E+02  9.686031E-01 -1.040291E+02  5.132707E-03 -7.772018E+00  1.880081E-04 1.788263E+02  3.315286E-04 -1.789747E+02 
 5.088505E-03 -7.625103E+00  9.678606E-01 -1.040604E+02  9.740565E-04 1.716069E+02  1.044324E-03 1.695675E+02 
 1.827447E-04 -1.752257E+02  9.403118E-04 1.703817E+02  9.788030E-01 -6.645630E+01  2.221428E-02 2.771232E+01 
 3.214979E-04 -1.743980E+02  1.073505E-03 1.707483E+02  2.231343E-02 2.778481E+01  9.775417E-01 -6.529778E+01 
7.357500000E+02  9.684345E-01 -1.040481E+02  5.120497E-03 -7.495419E+00  1.764561E-04 -1.756941E+02  3.192457E-04 -1.785329E+02 
 5.086120E-03 -7.460788E+00  9.677794E-01 -1.041145E+02  9.308533E-04 1.719752E+02  1.065619E-03 1.694071E+02 
 1.669014E-04 -1.705782E+02  9.478484E-04 1.705241E+02  9.790654E-01 -6.649877E+01  2.216888E-02 2.764041E+01 
 3.230862E-04 -1.761013E+02  1.060480E-03 1.696970E+02  2.225164E-02 2.774700E+01  9.775092E-01 -6.534239E+01 
7.358750000E+02  9.680585E-01 -1.040469E+02  5.143405E-03 -7.452055E+00  1.416664E-04 1.791837E+02  3.413197E-04 -1.757997E+02 
 5.095602E-03 -7.554194E+00  9.677206E-01 -1.041492E+02  9.604269E-04 1.709541E+02  1.027999E-03 1.689532E+02 
 1.532190E-04 -1.760268E+02  9.437345E-04 1.705027E+02  9.791235E-01 -6.653350E+01  2.212402E-02 2.762677E+01 
 2.953008E-04 -1.784713E+02  1.055487E-03 1.697978E+02  2.221637E-02 2.759879E+01  9.776712E-01 -6.540927E+01 
7.360000000E+02  9.678076E-01 -1.040292E+02  5.077889E-03 -7.471775E+00  1.600066E-04 -1.731325E+02  3.386468E-04 1.798347E+02 
 5.087841E-03 -7.559810E+00  9.678248E-01 -1.042026E+02  9.577446E-04 1.724892E+02  1.043594E-03 1.687185E+02 
 1.582640E-04 1.739683E+02  9.460086E-04 1.716926E+02  9.789360E-01 -6.657260E+01  2.205286E-02 2.743431E+01 
 3.402610E-04 -1.773069E+02  1.091704E-03 1.693753E+02  2.212381E-02 2.736953E+01  9.771996E-01 -6.544225E+01 
7.361250000E+02  9.679308E-01 -1.040196E+02  5.082608E-03 -7.367396E+00  1.633103E-04 1.754256E+02  3.229783E-04 -1.792377E+02 
 5.067363E-03 -7.337787E+00  9.679245E-01 -1.042341E+02  9.521918E-04 1.712134E+02  1.069000E-03 1.680479E+02 
 1.830183E-04 -1.713623E+02  9.537254E-04 1.703102E+02  9.786307E-01 -6.661476E+01  2.193535E-02 2.727357E+01 
 3.232060E-04 -1.782018E+02  1.046396E-03 1.679736E+02  2.204343E-02 2.728764E+01  9.774891E-01 -6.550668E+01 
7.362500000E+02  9.679513E-01 -1.040137E+02  5.074107E-03 -7.275178E+00  1.411754E-04 -1.791486E+02  3.335032E-04 1.769279E+02 
 5.070436E-03 -7.162963E+00  9.680715E-01 -1.042783E+02  9.497255E-04 1.708117E+02  1.031615E-03 1.692260E+02 
 1.550507E-04 1.788625E+02  9.904533E-04 1.721159E+02  9.787623E-01 -6.664371E+01  2.186382E-02 2.716971E+01 
 3.277805E-04 1.773689E+02  1.034492E-03 1.692951E+02  2.197165E-02 2.724177E+01  9.775137E-01 -6.554491E+01 
7.363750000E+02  9.683812E-01 -1.040234E+02  5.109768E-03 -7.265330E+00  1.584160E-04 1.790715E+02  3.123417E-04 1.798565E+02 
 5.063251E-03 -7.557955E+00  9.680079E-01 -1.043365E+02  9.274334E-04 1.717103E+02  1.028493E-03 1.679019E+02 
 1.686485E-04 -1.798501E+02  9.456516E-04 1.708190E+02  9.785404E-01 -6.667643E+01  2.177871E-02 2.699450E+01 
 3.174991E-04 1.786896E+02  1.015088E-03 1.685174E+02  2.186007E-02 2.708724E+01  9.774438E-01 -6.561519E+01 
7.365000000E+02  9.686601E-01 -1.040325E+02  5.085164E-03 -7.218117E+00  1.587305E-04 -1.747573E+02  3.233933E-04 1.795795E+02 
 5.070508E-03 -7.190440E+00  9.682312E-01 -1.043775E+02  9.384139E-04 1.698709E+02  1.020677E-03 1.691227E+02 
 1.367363E-04 -1.773525E+02  9.453834E-04 1.693603E+02  9.784413E-01 -6.671271E+01  2.163475E-02 2.696149E+01 
 3.571901E-04 1.777546E+02  1.033858E-03 1.696766E+02  2.170423E-02 2.704063E+01  9.773762E-01 -6.567236E+01 
7.366250000E+02  9.685583E-01 -1.040500E+02  5.077918E-03 -7.194513E+00  1.690964E-04 -1.701643E+02  3.285128E-04 -1.781769E+02 
 5.046439E-03 -7.095461E+00  9.682345E-01 -1.044261E+02  9.107572E-04 1.691457E+02  1.006253E-03 1.701464E+02 
 1.473665E-04 -1.719315E+02  9.107609E-04 1.694031E+02  9.782623E-01 -6.673585E+01  2.148065E-02 2.708045E+01 
 3.242300E-04 1.776689E+02  1.039395E-03 1.691669E+02  2.157136E-02 2.711792E+01  9.772363E-01 -6.571683E+01 
7.367500000E+02  9.688706E-01 -1.040593E+02  5.085559E-03 -6.955189E+00  1.644607E-04 -1.669670E+02  3.420130E-04 -1.763947E+02 
 5.065987E-03 -7.082048E+00  9.682604E-01 -1.044760E+02  9.146464E-04 1.705639E+02  1.015409E-03 1.692385E+02 
 2.008679E-04 -1.761793E+02  8.958797E-04 1.722945E+02  9.785511E-01 -6.677410E+01  2.139103E-02 2.734730E+01 
 3.284811E-04 -1.778786E+02  1.052915E-03 1.695088E+02  2.145452E-02 2.737406E+01  9.770377E-01 -6.577417E+01 
7.368750000E+02  9.690346E-01 -1.040804E+02  5.113822E-03 -7.188450E+00  2.031272E-04 -1.742487E+02  3.437126E-04 -1.770967E+02 
 5.088765E-03 -7.019243E+00  9.681855E-01 -1.045240E+02  8.996211E-04 1.735388E+02  1.041195E-03 1.689351E+02 
 1.813222E-04 -1.756047E+02  9.220658E-04 1.708509E+02  9.785287E-01 -6.680695E+01  2.133143E-02 2.748137E+01 
 3.468464E-04 1.789494E+02  1.030702E-03 1.697824E+02  2.142040E-02 2.756904E+01  9.764687E-01 -6.581478E+01 
7.370000000E+02  9.690658E-01 -1.041029E+02  5.109980E-03 -7.301942E+00  1.961931E-04 -1.664253E+02  3.595876E-04 -1.758654E+02 
 5.080111E-03 -7.389759E+00  9.681105E-01 -1.045861E+02  9.118318E-04 1.726794E+02  1.035990E-03 1.696473E+02 
 1.847055E-04 -1.772065E+02  9.079681E-04 1.727639E+02  9.784113E-01 -6.684521E+01  2.134667E-02 2.770335E+01 
 3.481971E-04 -1.775375E+02  1.023179E-03 1.697444E+02  2.139419E-02 2.779075E+01  9.763160E-01 -6.583708E+01 
7.371250000E+02  9.690971E-01 -1.041272E+02  5.116266E-03 -7.204587E+00  1.839840E-04 1.784558E+02  3.484177E-04 1.790587E+02 
 5.072312E-03 -7.223125E+00  9.679575E-01 -1.046222E+02  9.138169E-04 1.723663E+02  1.015907E-03 1.689009E+02 
 2.048138E-04 -1.711783E+02  9.133484E-04 1.718418E+02  9.784959E-01 -6.687471E+01  2.138949E-02 2.764834E+01 
 3.552390E-04 -1.768815E+02  1.027876E-03 1.694153E+02  2.143808E-02 2.780039E+01  9.762902E-01 -6.589372E+01 
7.372500000E+02  9.690811E-01 -1.041383E+02  5.107659E-03 -7.289431E+00  1.823601E-04 -1.731318E+02  3.252561E-04 1.790327E+02 
 5.059565E-03 -7.393992E+00  9.677989E-01 -1.046713E+02  9.152207E-04 1.727667E+02  1.037457E-03 1.697580E+02 
 2.126255E-04 -1.755833E+02  9.220581E-04 1.720035E+02  9.785535E-01 -6.691176E+01  2.138697E-02 2.766612E+01 
 3.338140E-04 1.787341E+02  1.020999E-03 1.698523E+02  2.143314E-02 2.763635E+01  9.762588E-01 -6.593824E+01 
7.373750000E+02  9.691119E-01 -1.041605E+02  5.095177E-03 -7.313636E+00  1.896548E-04 -1.745489E+02  3.383301E-04 1.788912E+02 
 5.090009E-03 -7.494352E+00  9.677562E-01 -1.047237E+02  9.244107E-04 1.745330E+02  1.041068E-03 1.705873E+02 
 1.999331E-04 1.796830E+02  9.322859E-04 1.729393E+02  9.785897E-01 -6.695773E+01  2.131166E-02 2.739620E+01 
 3.446597E-04 1.741151E+02  1.023674E-03 1.692344E+02  2.139825E-02 2.746483E+01  9.761588E-01 -6.598885E+01 
7.375000000E+02  9.692234E-01 -1.041829E+02  5.094261E-03 -7.623341E+00  1.575340E-04 1.769492E+02  3.286559E-04 1.745732E+02 
 5.075590E-03 -7.420159E+00  9.675086E-01 -1.047774E+02  9.372754E-04 1.731681E+02  1.034199E-03 1.696302E+02 
 1.906202E-04 1.751608E+02  9.485707E-04 1.720906E+02  9.785106E-01 -6.702186E+01  2.122145E-02 2.725226E+01 
 3.562645E-04 1.766792E+02  1.037816E-03 1.702673E+02  2.123571E-02 2.733987E+01  9.762371E-01 -6.602717E+01 
7.376250000E+02  9.692820E-01 -1.041908E+02  5.081097E-03 -7.487926E+00  1.861239E-04 1.786940E+02  3.324118E-04 1.797772E+02 
 5.072058E-03 -7.619704E+00  9.673537E-01 -1.048242E+02  9.536377E-04 1.734981E+02  1.042834E-03 1.689723E+02 
 1.946659E-04 1.778361E+02  9.692225E-04 1.731340E+02  9.787702E-01 -6.704159E+01  2.109650E-02 2.735398E+01 
 3.229700E-04 1.788653E+02  1.055250E-03 1.686060E+02  2.110090E-02 2.740542E+01  9.763429E-01 -6.609057E+01 
7.377500000E+02  9.692799E-01 -1.042205E+02  5.068118E-03 -7.589665E+00  1.601497E-04 1.750043E+02  3.202030E-04 -1.790345E+02 
 5.049849E-03 -7.727342E+00  9.669877E-01 -1.048615E+02  9.531022E-04 1.718835E+02  1.031876E-03 1.698486E+02 
 2.075403E-04 -1.792556E+02  9.432106E-04 1.733698E+02  9.785687E-01 -6.708618E+01  2.095690E-02 2.748137E+01 
 3.445630E-04 1.792394E+02  1.024448E-03 1.702737E+02  2.101464E-02 2.749204E+01  9.764230E-01 -6.614008E+01 
7.378750000E+02  9.695143E-01 -1.042393E+02  5.069039E-03 -7.555643E+00  1.765562E-04 1.761506E+02  3.310215E-04 1.785295E+02 
 5.065692E-03 -7.404847E+00  9.668620E-01 -1.048942E+02  9.437857E-04 1.719089E+02  1.025940E-03 1.701276E+02 
 2.084051E-04 1.772520E+02  9.235220E-04 1.724129E+02  9.784350E-01 -6.713539E+01  2.089588E-02 2.763133E+01 