! Matrix data file written by TouchstoneData, EPCOS AG
! FILENAME: "ansys_B4405_01_NB.s4p"
! COMMENT: "(B4405_01_NB.s4p) Epcos AG 2/4/2013 4:13:35"
! INFO: nport=4, nfreq=1601
! DATE: "Fri Feb 22 09:42:05 2013"
! USER: "Daniel Harbusch"
!
!port | pin | signal
! -----|-----|--------
!   1  |  3  |  TX Input
!   2  |  6  |  Antenna
!   3  |  8  |  RX output (balanced)
!   4  |  1  |  RX output (balanced)
! 
# MHZ S MA R 50
! freq  magS11 angS11  magS12 angS12  magS13 angS13  magS14 angS14  ...
7.000000000E+02  9.790393E-01 -9.674033E+01  1.549314E-02 -8.732895E+00  4.061590E-05 -5.775012E+01  8.614876E-05 -1.614677E+02 
1.542746E-02 -8.627378E+00  9.804265E-01 -1.043285E+02  6.788306E-04 4.198342E+01  8.241791E-04 2.935600E+01 
8.572269E-06 4.373438E+01  6.512656E-04 3.922864E+01  8.960516E-01 -4.000268E+01  4.162115E-01 4.983678E+01 
1.105956E-04 -1.553119E+02  8.430719E-04 3.063935E+01  4.156858E-01 4.981018E+01  8.974732E-01 -3.921005E+01 
7.001875000E+02  9.791611E-01 -9.679410E+01  1.545192E-02 -8.735140E+00  2.799765E-05 -7.280343E+01  7.199498E-05 -1.410269E+02 
1.543252E-02 -8.665483E+00  9.803458E-01 -1.043787E+02  6.504869E-04 3.835041E+01  8.242841E-04 3.197448E+01 
2.372424E-05 -3.061182E+01  6.572488E-04 4.299529E+01  8.962121E-01 -4.001304E+01  4.164982E-01 4.983142E+01 
9.479427E-05 -1.695505E+02  8.478091E-04 3.122502E+01  4.159552E-01 4.977690E+01  8.974701E-01 -3.922999E+01 
7.003750000E+02  9.796763E-01 -9.682776E+01  1.546638E-02 -8.698395E+00  4.778593E-05 -7.615109E+01  1.029975E-04 -1.529855E+02 
1.543577E-02 -8.720987E+00  9.799614E-01 -1.044095E+02  6.473924E-04 4.014285E+01  8.267744E-04 3.095448E+01 
4.871815E-05 -4.468947E+01  6.542974E-04 4.190393E+01  8.958824E-01 -4.002945E+01  4.165595E-01 4.981825E+01 
1.126227E-04 -1.464085E+02  8.363746E-04 3.158037E+01  4.163026E-01 4.978307E+01  8.973660E-01 -3.925667E+01 
7.005625000E+02  9.794027E-01 -9.688638E+01  1.548213E-02 -8.863453E+00  4.710457E-05 -6.010458E+00  1.182045E-04 -1.542331E+02 
1.540228E-02 -8.885055E+00  9.797151E-01 -1.044525E+02  6.633158E-04 4.105612E+01  8.322547E-04 2.797802E+01 
1.756120E-05 -3.132182E+01  6.700232E-04 4.320672E+01  8.958172E-01 -4.005166E+01  4.166221E-01 4.979291E+01 
1.259021E-04 -1.592736E+02  8.349916E-04 2.713393E+01  4.164300E-01 4.977957E+01  8.971700E-01 -3.926565E+01 
7.007500000E+02  9.794382E-01 -9.691572E+01  1.543351E-02 -8.949399E+00  3.637523E-05 -4.271647E+01  1.054487E-04 -1.687680E+02 
1.539966E-02 -8.798258E+00  9.791337E-01 -1.044712E+02  6.728250E-04 4.093552E+01  8.283375E-04 2.961142E+01 
3.032705E-05 -9.982084E+00  6.885177E-04 4.084286E+01  8.957417E-01 -4.006396E+01  4.168172E-01 4.976738E+01 
1.232301E-04 -1.618566E+02  8.540749E-04 2.817776E+01  4.166230E-01 4.975337E+01  8.969216E-01 -3.930578E+01 
7.009375000E+02  9.794921E-01 -9.697487E+01  1.540251E-02 -8.911296E+00  5.098014E-05 -2.710883E+00  1.171993E-04 -1.547099E+02 
1.538159E-02 -8.796982E+00  9.784434E-01 -1.044754E+02  6.649449E-04 4.056463E+01  8.215501E-04 2.685137E+01 
4.298781E-05 3.767021E+01  6.850380E-04 3.924053E+01  8.952982E-01 -4.010255E+01  4.169793E-01 4.977058E+01 
1.138670E-04 -1.763926E+02  8.529061E-04 2.850980E+01  4.167571E-01 4.973872E+01  8.965473E-01 -3.931855E+01 
7.011250000E+02  9.793754E-01 -9.701116E+01  1.539082E-02 -8.933947E+00  5.555899E-05 -1.458170E+01  1.031016E-04 1.777005E+02 
1.537817E-02 -8.821820E+00  9.784911E-01 -1.044677E+02  6.507673E-04 4.189706E+01  8.333655E-04 2.661813E+01 
2.292887E-05 1.727916E+01  6.483667E-04 3.917538E+01  8.950821E-01 -4.011916E+01  4.171718E-01 4.976317E+01 
1.625348E-04 -1.631169E+02  8.104212E-04 2.855841E+01  4.169553E-01 4.972242E+01  8.962577E-01 -3.932598E+01 
7.013125000E+02  9.791064E-01 -9.706315E+01  1.540403E-02 -8.878149E+00  2.736012E-05 -4.540179E+01  1.218122E-04 -1.693050E+02 
1.535362E-02 -9.002005E+00  9.782482E-01 -1.044750E+02  6.564335E-04 3.945483E+01  7.863067E-04 2.887559E+01 
2.259907E-05 9.320405E+01  6.734622E-04 3.834590E+01  8.947423E-01 -4.014033E+01  4.176177E-01 4.972296E+01 
1.425329E-04 -1.636020E+02  8.375309E-04 2.840132E+01  4.172604E-01 4.970931E+01  8.959908E-01 -3.932286E+01 
7.015000000E+02  9.790253E-01 -9.712149E+01  1.538248E-02 -8.993879E+00  2.034532E-05 2.478791E+01  1.206492E-04 -1.573950E+02 
1.535866E-02 -8.846034E+00  9.785026E-01 -1.044623E+02  6.473315E-04 3.927985E+01  8.447532E-04 2.566160E+01 
3.777158E-05 2.891185E+01  6.592034E-04 3.844222E+01  8.944213E-01 -4.016982E+01  4.175965E-01 4.969400E+01 
1.005070E-04 -1.760442E+02  8.184941E-04 2.871549E+01  4.174636E-01 4.966645E+01  8.955402E-01 -3.933696E+01 
7.016875000E+02  9.789833E-01 -9.715860E+01  1.542038E-02 -9.002442E+00  5.086906E-05 2.759735E+01  1.143691E-04 1.789104E+02 
1.533329E-02 -8.953973E+00  9.789380E-01 -1.044678E+02  6.279840E-04 4.087399E+01  8.235535E-04 2.843764E+01 
2.932104E-05 -2.786744E+00  6.394547E-04 4.108481E+01  8.940880E-01 -4.020654E+01  4.180839E-01 4.961469E+01 
1.146639E-04 -1.572281E+02  8.152551E-04 2.843227E+01  4.178260E-01 4.960164E+01  8.953594E-01 -3.936709E+01 
7.018750000E+02  9.787496E-01 -9.718850E+01  1.537607E-02 -9.005891E+00  1.943848E-05 -2.597358E+00  1.302591E-04 1.752799E+02 
1.534630E-02 -9.029683E+00  9.793726E-01 -1.044721E+02  5.949475E-04 4.109843E+01  8.256740E-04 2.745572E+01 
1.449414E-05 -1.710564E+01  6.235403E-04 4.264196E+01  8.931893E-01 -4.024851E+01  4.184968E-01 4.951653E+01 
1.380369E-04 1.744738E+02  8.050018E-04 2.715702E+01  4.182926E-01 4.950296E+01  8.946416E-01 -3.939360E+01 
7.020625000E+02  9.787346E-01 -9.724266E+01  1.535180E-02 -8.965398E+00  3.900968E-05 1.036136E+02  1.177454E-04 -1.798004E+02 
1.531802E-02 -9.183209E+00  9.796980E-01 -1.045106E+02  6.495128E-04 4.481212E+01  7.903466E-04 2.696619E+01 
4.079372E-05 3.276313E+00  6.458143E-04 4.336436E+01  8.910787E-01 -4.023265E+01  4.183197E-01 4.922945E+01 
1.202087E-04 -1.680132E+02  7.727874E-04 2.783263E+01  4.180709E-01 4.917172E+01  8.924957E-01 -3.939496E+01 
7.022500000E+02  9.789476E-01 -9.729807E+01  1.540033E-02 -9.134006E+00  5.321219E-05 -1.009522E+01  1.129628E-04 -1.741328E+02 
1.530075E-02 -9.161145E+00  9.799275E-01 -1.045314E+02  6.628246E-04 4.099894E+01  7.468747E-04 2.961421E+01 
2.590478E-05 3.707265E+01  6.655108E-04 4.258834E+01  8.934011E-01 -4.004554E+01  4.146050E-01 4.951598E+01 
1.273470E-04 -1.744618E+02  7.499201E-04 2.782822E+01  4.143107E-01 4.951955E+01  8.947086E-01 -3.914850E+01 
7.024375000E+02  9.788167E-01 -9.735742E+01  1.537209E-02 -9.235504E+00  4.217791E-05 6.644423E+00  1.584977E-04 -1.569639E+02 
1.528212E-02 -9.165035E+00  9.802979E-01 -1.045536E+02  6.742305E-04 4.442263E+01  7.890182E-04 3.045045E+01 
6.205867E-05 -2.400903E+01  6.340551E-04 4.447971E+01  8.937856E-01 -4.018062E+01  4.165018E-01 4.962324E+01 
1.141456E-04 1.759994E+02  8.067615E-04 2.979287E+01  4.164065E-01 4.960684E+01  8.957229E-01 -3.927390E+01 
7.026250000E+02  9.782299E-01 -9.741246E+01  1.535673E-02 -9.119987E+00  7.860850E-05 -4.118408E+01  1.232036E-04 1.690382E+02 
1.526344E-02 -9.132048E+00  9.803915E-01 -1.045831E+02  6.638982E-04 4.261786E+01  7.777518E-04 2.928703E+01 
1.659012E-05 1.797742E+00  6.910450E-04 4.247652E+01  8.934674E-01 -4.024042E+01  4.170958E-01 4.953758E+01 
1.133201E-04 1.780957E+02  8.076415E-04 2.918902E+01  4.169714E-01 4.952518E+01  8.953967E-01 -3.932647E+01 
7.028125000E+02  9.777611E-01 -9.744199E+01  1.526364E-02 -9.306018E+00  4.391556E-05 -4.299405E+01  1.369996E-04 -1.707938E+02 
1.524587E-02 -9.135633E+00  9.805540E-01 -1.045942E+02  6.972790E-04 4.283570E+01  7.990412E-04 3.200644E+01 
2.427029E-05 -5.037753E+01  6.989023E-04 4.318573E+01  8.934640E-01 -4.029250E+01  4.173836E-01 4.953378E+01 
1.246136E-04 -1.675860E+02  7.836764E-04 3.042529E+01  4.168938E-01 4.952533E+01  8.952148E-01 -3.934701E+01 
7.030000000E+02  9.775562E-01 -9.746624E+01  1.526223E-02 -9.171610E+00  1.578300E-05 -7.636794E+01  1.029452E-04 -1.741466E+02 
1.521261E-02 -9.132123E+00  9.806744E-01 -1.046212E+02  7.130680E-04 4.266811E+01  8.192452E-04 3.139841E+01 
1.990606E-05 -1.069609E+02  6.736670E-04 4.403812E+01  8.929763E-01 -4.032424E+01  4.176878E-01 4.950661E+01 
1.146968E-04 -1.521082E+02  8.006052E-04 3.214563E+01  4.174095E-01 4.948033E+01  8.950314E-01 -3.939537E+01 
7.031875000E+02  9.773483E-01 -9.747672E+01  1.522395E-02 -9.162116E+00  3.200332E-05 -5.173415E+01  1.249335E-04 -1.714773E+02 
1.515603E-02 -9.050985E+00  9.806443E-01 -1.046375E+02  7.169961E-04 4.055562E+01  8.313958E-04 3.069751E+01 
3.218979E-05 -9.519620E+01  6.882492E-04 4.319330E+01  8.925678E-01 -4.034604E+01  4.177710E-01 4.947629E+01 
1.173685E-04 -1.522627E+02  8.030427E-04 2.937420E+01  4.176252E-01 4.946263E+01  8.948982E-01 -3.940792E+01 
7.033750000E+02  9.771618E-01 -9.750829E+01  1.524211E-02 -9.137927E+00  4.144676E-05 -6.147407E+01  1.189049E-04 -1.781695E+02 
1.518719E-02 -9.070463E+00  9.813165E-01 -1.046738E+02  6.834671E-04 3.905891E+01  8.036253E-04 2.934126E+01 
1.427480E-05 5.777239E+01  6.985436E-04 4.024114E+01  8.922950E-01 -4.038274E+01  4.179686E-01 4.943752E+01 
1.167812E-04 -1.520822E+02  8.346685E-04 3.003333E+01  4.178569E-01 4.940181E+01  8.944557E-01 -3.945786E+01 
7.035625000E+02  9.772795E-01 -9.752980E+01  1.523166E-02 -9.097962E+00  2.256047E-05 -1.101202E+02  1.439529E-04 -1.593957E+02 
1.516423E-02 -9.118067E+00  9.812827E-01 -1.047034E+02  6.574127E-04 4.094114E+01  8.333274E-04 3.092907E+01 
2.019185E-05 8.756860E+01  7.025802E-04 4.152038E+01  8.916163E-01 -4.038773E+01  4.184022E-01 4.940027E+01 
1.181511E-04 -1.625524E+02  8.047094E-04 3.023838E+01  4.181823E-01 4.938492E+01  8.939695E-01 -3.947287E+01 
7.037500000E+02  9.772161E-01 -9.755235E+01  1.525976E-02 -9.009552E+00  3.846454E-05 5.345744E+01  8.168983E-05 -1.746475E+02 
1.518780E-02 -8.977553E+00  9.809312E-01 -1.047439E+02  6.679137E-04 4.153859E+01  7.971906E-04 3.178032E+01 
3.922311E-05 -5.923010E+01  6.820361E-04 4.180399E+01  8.914028E-01 -4.040962E+01  4.186109E-01 4.934679E+01 
1.507827E-04 -1.593316E+02  8.067799E-04 3.094456E+01  4.183338E-01 4.934332E+01  8.934887E-01 -3.948881E+01 
7.039375000E+02  9.774522E-01 -9.756698E+01  1.522917E-02 -9.000980E+00  9.839840E-06 -3.995179E+01  1.440326E-04 -1.704633E+02 
1.513972E-02 -8.934348E+00  9.812652E-01 -1.047691E+02  6.418548E-04 3.976426E+01  8.131398E-04 3.354146E+01 
2.034993E-05 -2.887294E+01  6.611643E-04 3.814553E+01  8.905592E-01 -4.040773E+01  4.190506E-01 4.927768E+01 
1.450851E-04 -1.467138E+02  7.784573E-04 3.015158E+01  4.186902E-01 4.925747E+01  8.928890E-01 -3.951323E+01 
7.041250000E+02  9.773600E-01 -9.762589E+01  1.523782E-02 -9.013045E+00  2.867185E-05 -2.150172E+01  1.301542E-04 -1.566461E+02 
1.519289E-02 -9.039139E+00  9.810364E-01 -1.047831E+02  6.747185E-04 3.907959E+01  8.054669E-04 2.896066E+01 
3.289276E-06 3.575594E+01  6.521315E-04 3.966080E+01  8.890806E-01 -4.038869E+01  4.188776E-01 4.910905E+01 
1.431453E-04 -1.665648E+02  8.318016E-04 3.197705E+01  4.187158E-01 4.910911E+01  8.916018E-01 -3.951038E+01 
7.043125000E+02  9.771596E-01 -9.765198E+01  1.525365E-02 -8.971401E+00  8.207266E-05 -2.553414E+01  1.215518E-04 -1.795221E+02 
1.517410E-02 -9.104590E+00  9.812937E-01 -1.048193E+02  6.830878E-04 4.315700E+01  8.297342E-04 3.071918E+01 
2.126881E-05 1.120776E+02  6.588429E-04 4.134647E+01  8.883142E-01 -4.025486E+01  4.170676E-01 4.894040E+01 
1.418834E-04 -1.692125E+02  8.291771E-04 3.052653E+01  4.167885E-01 4.896380E+01  8.906898E-01 -3.939500E+01 
7.045000000E+02  9.767577E-01 -9.765702E+01  1.523766E-02 -9.024527E+00  1.828785E-05 -1.129625E+01  1.374212E-04 -1.706704E+02 
1.514686E-02 -8.952578E+00  9.814027E-01 -1.048570E+02  6.826101E-04 3.911651E+01  8.349641E-04 3.071900E+01 
1.522627E-05 -1.278056E+02  6.809852E-04 4.119494E+01  8.902060E-01 -4.020871E+01  4.163050E-01 4.921411E+01 
1.609209E-04 -1.756835E+02  7.862865E-04 3.031573E+01  4.159278E-01 4.923006E+01  8.923047E-01 -3.934806E+01 
7.046875000E+02  9.768258E-01 -9.765764E+01  1.524482E-02 -8.916720E+00  2.583077E-05 -4.809727E+01  1.173999E-04 -1.715750E+02 
1.517473E-02 -8.874852E+00  9.813438E-01 -1.048946E+02  6.574291E-04 4.212627E+01  8.123442E-04 3.042992E+01 
7.353911E-05 -4.056704E+01  6.509973E-04 4.096401E+01  8.908028E-01 -4.024051E+01  4.169070E-01 4.926435E+01 
1.298967E-04 -1.719379E+02  7.777178E-04 2.772431E+01  4.165938E-01 4.931508E+01  8.928966E-01 -3.938938E+01 
7.048750000E+02  9.772187E-01 -9.766257E+01  1.523630E-02 -8.892838E+00  6.091880E-05 -5.825851E+01  1.111171E-04 -1.655401E+02 
1.516325E-02 -8.981745E+00  9.809951E-01 -1.049365E+02  6.197321E-04 4.558511E+01  8.180375E-04 3.139910E+01 
5.906928E-05 4.096884E+01  6.628341E-04 4.496739E+01  8.909119E-01 -4.027916E+01  4.172107E-01 4.927375E+01 
1.435450E-04 -1.724780E+02  8.016591E-04 2.947268E+01  4.168175E-01 4.932257E+01  8.933242E-01 -3.942651E+01 
7.050625000E+02  9.774163E-01 -9.768105E+01  1.526413E-02 -9.084153E+00  1.285053E-05 -7.888088E+01  1.301054E-04 -1.549004E+02 
1.514945E-02 -9.083630E+00  9.809578E-01 -1.049582E+02  6.596674E-04 4.504294E+01  8.205793E-04 2.938173E+01 
4.801717E-05 -3.729530E+01  6.664222E-04 4.515315E+01  8.911576E-01 -4.029043E+01  4.176492E-01 4.926659E+01 
1.215105E-04 -1.633201E+02  8.451246E-04 3.155795E+01  4.172320E-01 4.935746E+01  8.933586E-01 -3.946305E+01 
7.052500000E+02  9.772878E-01 -9.771587E+01  1.524343E-02 -8.923140E+00  3.499593E-05 -5.544443E+00  9.677820E-05 -1.662662E+02 
1.514454E-02 -8.952894E+00  9.808310E-01 -1.049554E+02  7.003064E-04 4.671928E+01  7.949736E-04 3.147776E+01 
4.787296E-05 -4.069611E+01  7.256067E-04 4.272305E+01  8.910966E-01 -4.031442E+01  4.180660E-01 4.926626E+01 
9.676028E-05 -1.715869E+02  7.988143E-04 3.059540E+01  4.175468E-01 4.932007E+01  8.931674E-01 -3.950588E+01 
7.054375000E+02  9.772924E-01 -9.774116E+01  1.524778E-02 -8.863024E+00  4.137548E-05 -4.600999E+01  1.139419E-04 -1.618991E+02 
1.514783E-02 -9.109269E+00  9.810412E-01 -1.049859E+02  6.641131E-04 4.373451E+01  8.042691E-04 3.100299E+01 
5.092540E-05 2.883679E+00  7.228096E-04 4.041970E+01  8.909487E-01 -4.033634E+01  4.182231E-01 4.924027E+01 
1.019872E-04 -1.792784E+02  8.328626E-04 3.002093E+01  4.176649E-01 4.929648E+01  8.925875E-01 -3.953704E+01 
7.056250000E+02  9.775362E-01 -9.775779E+01  1.527981E-02 -8.977883E+00  5.143505E-05 -8.888731E+00  1.201979E-04 -1.536845E+02 
1.519126E-02 -8.864795E+00  9.815006E-01 -1.050289E+02  7.275915E-04 4.236436E+01  8.262641E-04 3.109101E+01 
5.504650E-05 -2.745507E+01  7.031304E-04 4.427125E+01  8.905869E-01 -4.035879E+01  4.184291E-01 4.920811E+01 
1.366735E-04 -1.703689E+02  8.246490E-04 3.065972E+01  4.178493E-01 4.931113E+01  8.925395E-01 -3.952556E+01 
7.058125000E+02  9.775935E-01 -9.776543E+01  1.527810E-02 -9.044453E+00  3.324045E-05 -5.595630E+01  1.156862E-04 -1.664970E+02 
1.519492E-02 -9.010687E+00  9.815161E-01 -1.050530E+02  6.854642E-04 4.168359E+01  8.204914E-04 3.116665E+01 
3.950318E-05 -5.758979E+01  7.115523E-04 4.201328E+01  8.902018E-01 -4.036632E+01  4.183818E-01 4.917950E+01 
1.072950E-04 -1.754834E+02  8.266993E-04 3.078298E+01  4.179544E-01 4.928829E+01  8.924665E-01 -3.953337E+01 
7.060000000E+02  9.777042E-01 -9.777924E+01  1.529218E-02 -9.093653E+00  4.273156E-05 2.914905E+01  1.411982E-04 -1.608327E+02 
1.520101E-02 -9.221174E+00  9.817814E-01 -1.050861E+02  6.780622E-04 3.826959E+01  8.202614E-04 3.061648E+01 
3.318295E-05 -5.154248E+01  6.904244E-04 3.884137E+01  8.901280E-01 -4.037210E+01  4.186947E-01 4.915785E+01 
1.206860E-04 -1.680063E+02  8.331230E-04 2.968733E+01  4.179378E-01 4.927062E+01  8.921317E-01 -3.953820E+01 
7.061875000E+02  9.778954E-01 -9.781076E+01  1.522560E-02 -9.204679E+00  3.659216E-05 5.039405E+01  1.009780E-04 1.772939E+02 
1.518381E-02 -9.280039E+00  9.816113E-01 -1.051110E+02  6.839653E-04 3.921447E+01  8.323386E-04 2.887041E+01 
1.578855E-05 2.732972E+01  6.671135E-04 3.758652E+01  8.900890E-01 -4.039780E+01  4.185737E-01 4.913928E+01 
1.176216E-04 -1.734270E+02  8.167107E-04 2.898941E+01  4.180148E-01 4.923893E+01  8.924138E-01 -3.956549E+01 
7.063750000E+02  9.782818E-01 -9.784420E+01  1.525194E-02 -9.230118E+00  6.831146E-05 -6.133085E+01  1.026136E-04 -1.782060E+02 
1.512602E-02 -9.352276E+00  9.819034E-01 -1.051589E+02  6.699077E-04 3.992457E+01  8.473402E-04 2.819676E+01 
2.664074E-05 -8.304184E+01  6.667517E-04 3.879121E+01  8.900301E-01 -4.040922E+01  4.188622E-01 4.915115E+01 
1.402135E-04 -1.687237E+02  8.141492E-04 2.910103E+01  4.180450E-01 4.921139E+01  8.921861E-01 -3.959150E+01 
7.065625000E+02  9.778381E-01 -9.791202E+01  1.528468E-02 -9.231322E+00  3.905672E-05 -7.902798E+01  1.102672E-04 -1.514204E+02 
1.515332E-02 -9.312704E+00  9.820279E-01 -1.051960E+02  7.105550E-04 3.747651E+01  7.996922E-04 3.035952E+01 
3.131298E-05 -3.557384E+01  6.819953E-04 3.830244E+01  8.897678E-01 -4.044726E+01  4.188415E-01 4.911861E+01 
1.189769E-04 -1.710866E+02  7.959984E-04 2.965253E+01  4.180988E-01 4.916443E+01  8.920329E-01 -3.961038E+01 
7.067500000E+02  9.776065E-01 -9.791285E+01  1.521810E-02 -9.270824E+00  4.646777E-05 -1.628930E+01  1.189169E-04 -1.602708E+02 
1.514857E-02 -9.281605E+00  9.817027E-01 -1.052423E+02  6.857108E-04 3.805097E+01  8.214081E-04 2.959861E+01 
3.518261E-05 9.368732E+00  6.703312E-04 3.859961E+01  8.893411E-01 -4.045936E+01  4.188253E-01 4.912547E+01 
1.288534E-04 -1.626742E+02  7.909712E-04 2.903321E+01  4.180849E-01 4.915862E+01  8.915621E-01 -3.961562E+01 
7.069375000E+02  9.776348E-01 -9.794320E+01  1.519782E-02 -9.465876E+00  3.404042E-05 7.971645E+01  1.103115E-04 -1.693192E+02 
1.513453E-02 -9.471693E+00  9.817507E-01 -1.052642E+02  6.500012E-04 3.914464E+01  8.197564E-04 3.063859E+01 
4.407322E-05 4.680007E+01  6.646283E-04 3.610324E+01  8.889175E-01 -4.046678E+01  4.187161E-01 4.911223E+01 
8.609353E-05 1.784749E+02  8.243166E-04 2.916181E+01  4.181610E-01 4.916576E+01  8.917402E-01 -3.963024E+01 
7.071250000E+02  9.774738E-01 -9.795200E+01  1.515919E-02 -9.310492E+00  4.781996E-05 3.882432E+00  1.084658E-04 -1.639461E+02 
1.509090E-02 -9.421300E+00  9.815988E-01 -1.053064E+02  6.241203E-04 3.590006E+01  7.959954E-04 2.780062E+01 
3.886296E-05 4.779084E+01  6.669017E-04 3.562856E+01  8.888789E-01 -4.046952E+01  4.189900E-01 4.912397E+01 
1.021693E-04 -1.497235E+02  8.325476E-04 2.621983E+01  4.184463E-01 4.915314E+01  8.915880E-01 -3.965577E+01 
7.073125000E+02  9.777080E-01 -9.797892E+01  1.515978E-02 -9.312057E+00  2.385543E-05 3.008035E+01  1.216384E-04 -1.636547E+02 
1.507971E-02 -9.332888E+00  9.813694E-01 -1.053355E+02  6.614507E-04 3.600304E+01  7.969201E-04 2.990054E+01 
4.520554E-05 -5.274539E+00  6.843336E-04 3.869920E+01  8.886077E-01 -4.048535E+01  4.192833E-01 4.909973E+01 
1.351911E-04 -1.641652E+02  7.891905E-04 2.895879E+01  4.186248E-01 4.913417E+01  8.912926E-01 -3.967026E+01 
7.075000000E+02  9.777825E-01 -9.798944E+01  1.515607E-02 -9.362582E+00  4.267482E-05 4.337965E+01  1.212438E-04 -1.620506E+02 
1.505378E-02 -9.299115E+00  9.812573E-01 -1.053864E+02  6.199627E-04 3.662826E+01  7.955322E-04 3.057407E+01 
4.407592E-05 -5.304373E+01  6.101796E-04 3.471731E+01  8.885184E-01 -4.048037E+01  4.194905E-01 4.910982E+01 
1.047218E-04 -1.724386E+02  8.221554E-04 3.005847E+01  4.187684E-01 4.909747E+01  8.908339E-01 -3.966917E+01 
7.076875000E+02  9.782200E-01 -9.799858E+01  1.519451E-02 -9.209620E+00  4.355566E-05 -6.033667E+01  1.326097E-04 -1.724373E+02 
1.507906E-02 -9.013820E+00  9.810586E-01 -1.054060E+02  6.218035E-04 3.852081E+01  7.756404E-04 2.953486E+01 
8.578821E-05 -4.806245E+01  5.905981E-04 3.722890E+01  8.883209E-01 -4.049981E+01  4.194984E-01 4.904370E+01 
1.302134E-04 1.795960E+02  7.927261E-04 3.096278E+01  4.189890E-01 4.904909E+01  8.904324E-01 -3.967416E+01 
7.078750000E+02  9.787582E-01 -9.803669E+01  1.516955E-02 -9.231662E+00  4.875637E-05 -3.919415E+01  1.286810E-04 -1.695431E+02 
1.512046E-02 -9.088413E+00  9.805985E-01 -1.054105E+02  6.234929E-04 4.004760E+01  7.883090E-04 3.105281E+01 
5.199786E-05 -5.211619E+01  6.602125E-04 4.106805E+01  8.879484E-01 -4.052382E+01  4.194584E-01 4.900156E+01 
1.147993E-04 -1.716671E+02  7.962579E-04 3.061959E+01  4.188815E-01 4.900401E+01  8.902240E-01 -3.968812E+01 
7.080625000E+02  9.790833E-01 -9.808198E+01  1.517459E-02 -9.367242E+00  4.522019E-05 -7.841424E+01  1.367390E-04 -1.756374E+02 
1.511966E-02 -9.088091E+00  9.806883E-01 -1.054527E+02  6.565631E-04 3.987055E+01  7.889697E-04 2.907437E+01 
2.245012E-05 -5.467701E+01  6.397585E-04 3.941365E+01  8.874657E-01 -4.054596E+01  4.195430E-01 4.895552E+01 
1.094074E-04 -1.760513E+02  7.773015E-04 2.914763E+01  4.188968E-01 4.893652E+01  8.897270E-01 -3.972868E+01 
7.082500000E+02  9.791807E-01 -9.812494E+01  1.519749E-02 -9.153896E+00  4.941656E-05 -4.420874E+01  1.558800E-04 1.772730E+02 
1.511876E-02 -9.197604E+00  9.804222E-01 -1.054476E+02  6.354220E-04 4.485206E+01  8.258101E-04 3.010031E+01 
2.890370E-05 -5.567418E+01  6.427628E-04 3.978748E+01  8.870628E-01 -4.055039E+01  4.194322E-01 4.889569E+01 
1.044561E-04 -1.780846E+02  7.827559E-04 2.912773E+01  4.188808E-01 4.885176E+01  8.888848E-01 -3.974302E+01 
7.084375000E+02  9.791389E-01 -9.816948E+01  1.522192E-02 -9.360348E+00  2.996212E-05 -5.591279E+01  8.056007E-05 -1.622879E+02 
1.513452E-02 -9.296484E+00  9.804315E-01 -1.054767E+02  6.274571E-04 4.338237E+01  8.009101E-04 2.940077E+01 
3.978997E-05 1.732595E+02  6.444043E-04 4.067029E+01  8.867838E-01 -4.053500E+01  4.188417E-01 4.886641E+01 
1.126318E-04 -1.781037E+02  8.029716E-04 3.015049E+01  4.183918E-01 4.882600E+01  8.880658E-01 -3.968723E+01 
7.086250000E+02  9.790479E-01 -9.820578E+01  1.521815E-02 -9.528102E+00  2.727528E-05 1.191228E+01  1.119731E-04 -1.592197E+02 
1.515632E-02 -9.446793E+00  9.805779E-01 -1.054841E+02  6.372791E-04 3.901364E+01  7.801546E-04 2.877869E+01 
2.598593E-05 1.474433E+01  6.347664E-04 4.116001E+01  8.865348E-01 -4.054403E+01  4.185688E-01 4.886044E+01 
9.855270E-05 1.776192E+02  7.937206E-04 2.974478E+01  4.180826E-01 4.879746E+01  8.881653E-01 -3.962372E+01 
7.088125000E+02  9.789768E-01 -9.824675E+01  1.516251E-02 -9.541894E+00  3.523393E-05 1.057695E+01  9.697306E-05 -1.624171E+02 
1.512033E-02 -9.268310E+00  9.803171E-01 -1.055054E+02  6.229429E-04 4.125957E+01  8.278614E-04 3.051647E+01 
2.426361E-05 -3.416749E+01  6.341849E-04 4.112605E+01  8.862463E-01 -4.053502E+01  4.181568E-01 4.882897E+01 
1.054961E-04 1.779306E+02  8.198351E-04 3.003072E+01  4.175284E-01 4.878087E+01  8.884224E-01 -3.959713E+01 
7.090000000E+02  9.788709E-01 -9.827100E+01  1.518066E-02 -9.479842E+00  4.480667E-05 -4.161060E+01  9.680219E-05 -1.573892E+02 
1.513824E-02 -9.396897E+00  9.807641E-01 -1.055188E+02  6.324502E-04 4.157270E+01  7.920608E-04 3.033880E+01 
2.671852E-05 -1.416580E+02  6.314364E-04 3.877491E+01  8.862157E-01 -4.052180E+01  4.176636E-01 4.882635E+01 
1.139944E-04 -1.594063E+02  7.997826E-04 2.896734E+01  4.171296E-01 4.878446E+01  8.889718E-01 -3.956841E+01 
7.091875000E+02  9.788459E-01 -9.831991E+01  1.516985E-02 -9.488755E+00  2.961706E-05 -5.062939E+01  1.451573E-04 -1.621655E+02 
1.512424E-02 -9.260775E+00  9.810594E-01 -1.055527E+02  5.830460E-04 4.216789E+01  8.085233E-04 3.007331E+01 
2.636145E-05 1.338247E+01  6.265559E-04 3.827619E+01  8.861567E-01 -4.048186E+01  4.170669E-01 4.889947E+01 
1.416671E-04 -1.661135E+02  7.858375E-04 2.728387E+01  4.168699E-01 4.884395E+01  8.898133E-01 -3.959192E+01 
7.093750000E+02  9.790114E-01 -9.834380E+01  1.521131E-02 -9.397413E+00  4.074585E-05 -1.655516E+01  1.159996E-04 -1.738747E+02 
1.516812E-02 -9.316507E+00  9.812897E-01 -1.055812E+02  5.981786E-04 4.141237E+01  7.996682E-04 3.017047E+01 
3.947777E-05 -3.949407E+01  6.690355E-04 4.040957E+01  8.870887E-01 -4.050957E+01  4.173031E-01 4.895218E+01 
1.306131E-04 -1.636674E+02  8.165373E-04 2.987804E+01  4.170084E-01 4.890254E+01  8.897516E-01 -3.963425E+01 
7.095625000E+02  9.789497E-01 -9.839022E+01  1.525762E-02 -9.587342E+00  3.282723E-05 -2.737001E+01  1.303858E-04 -1.711282E+02 
1.517882E-02 -9.468214E+00  9.813162E-01 -1.056161E+02  6.621036E-04 3.947997E+01  7.875323E-04 3.184870E+01 
5.702112E-05 1.886493E+01  6.197969E-04 4.118720E+01  8.870279E-01 -4.054042E+01  4.173025E-01 4.895036E+01 
1.139615E-04 -1.650795E+02  7.980132E-04 2.833736E+01  4.171691E-01 4.889744E+01  8.897605E-01 -3.965519E+01 
7.097500000E+02  9.791046E-01 -9.843781E+01  1.525437E-02 -9.840364E+00  3.575682E-05 -2.029385E+01  1.561616E-04 -1.777884E+02 
1.518665E-02 -9.669315E+00  9.814206E-01 -1.056311E+02  5.975121E-04 4.164430E+01  8.218708E-04 2.971082E+01 
5.637517E-05 -2.166232E+01  6.152895E-04 4.192275E+01  8.865235E-01 -4.054697E+01  4.169689E-01 4.896483E+01 
1.077871E-04 -1.766958E+02  8.179675E-04 3.030676E+01  4.168950E-01 4.891876E+01  8.895853E-01 -3.967444E+01 
7.099375000E+02  9.789173E-01 -9.847903E+01  1.520723E-02 -9.825386E+00  5.277498E-05 2.701116E+00  1.308003E-04 -1.749254E+02 
1.516798E-02 -9.760620E+00  9.818107E-01 -1.056665E+02  6.310412E-04 4.256851E+01  8.194579E-04 2.834781E+01 
3.337420E-05 -3.924783E+01  6.626163E-04 4.315888E+01  8.862177E-01 -4.053249E+01  4.167189E-01 4.899529E+01 
1.165698E-04 -1.784091E+02  8.071919E-04 2.881815E+01  4.166102E-01 4.892523E+01  8.892415E-01 -3.969284E+01 
7.101250000E+02  9.787690E-01 -9.852585E+01  1.521601E-02 -9.968888E+00  3.553674E-05 2.448658E+01  1.160784E-04 -1.715164E+02 
1.518006E-02 -9.889352E+00  9.818518E-01 -1.056908E+02  6.549626E-04 4.160749E+01  8.133056E-04 2.791401E+01 
5.464677E-05 -4.073086E+01  6.443024E-04 4.091073E+01  8.868106E-01 -4.049711E+01  4.165708E-01 4.910477E+01 
1.247859E-04 -1.692921E+02  7.830490E-04 2.799330E+01  4.164482E-01 4.902450E+01  8.893001E-01 -3.970413E+01 
7.103125000E+02  9.782862E-01 -9.856484E+01  1.517874E-02 -1.013638E+01  5.367268E-05 -1.140612E+01  1.051382E-04 -1.639894E+02 
1.516618E-02 -1.015109E+01  9.817071E-01 -1.057121E+02  6.480783E-04 4.097394E+01  8.093989E-04 2.958857E+01 
2.524307E-05 1.628124E+01  6.531385E-04 3.959111E+01  8.874218E-01 -4.050034E+01  4.168901E-01 4.920485E+01 
1.305972E-04 -1.697251E+02  8.228247E-04 2.970572E+01  4.167420E-01 4.911703E+01  8.891928E-01 -3.973839E+01 
7.105000000E+02  9.777013E-01 -9.859462E+01  1.515106E-02 -1.023378E+01  4.047327E-05 -6.771469E+01  1.283429E-04 -1.795132E+02 
1.512690E-02 -1.014504E+01  9.820196E-01 -1.057630E+02  6.512215E-04 4.013889E+01  8.052631E-04 2.587283E+01 
7.337618E-05 -9.890226E+00  6.352976E-04 3.980122E+01  8.876443E-01 -4.054453E+01  4.175106E-01 4.925652E+01 
1.363792E-04 -1.737862E+02  8.192514E-04 2.725155E+01  4.173074E-01 4.918946E+01  8.884247E-01 -3.975679E+01 
7.106875000E+02  9.780307E-01 -9.863364E+01  1.510579E-02 -1.032339E+01  1.411589E-05 -1.324414E+02  1.463265E-04 -1.670484E+02 
1.511127E-02 -1.010236E+01  9.820750E-01 -1.058055E+02  6.299112E-04 3.805201E+01  8.345957E-04 2.929681E+01 
9.017385E-06 7.285650E+01  6.245974E-04 3.869747E+01  8.880146E-01 -4.056591E+01  4.184114E-01 4.924569E+01 
1.633971E-04 -1.760578E+02  8.033544E-04 2.916882E+01  4.182585E-01 4.915134E+01  8.880536E-01 -3.975325E+01 
7.108750000E+02  9.780431E-01 -9.866619E+01  1.509651E-02 -1.041814E+01  1.402593E-05 -1.112641E+02  1.248128E-04 1.797803E+02 
1.505351E-02 -1.027034E+01  9.815671E-01 -1.058319E+02  6.536282E-04 4.263644E+01  8.128971E-04 2.779656E+01 
2.976061E-05 -7.897759E+01  6.436245E-04 4.044974E+01  8.880306E-01 -4.059954E+01  4.185649E-01 4.917920E+01 
1.178662E-04 -1.786059E+02  8.372502E-04 2.761302E+01  4.184906E-01 4.909667E+01  8.878008E-01 -3.974507E+01 
7.110625000E+02  9.777820E-01 -9.869334E+01  1.507793E-02 -1.031100E+01  2.153257E-05 -5.229559E+01  1.390106E-04 -1.776851E+02 
1.503098E-02 -1.025415E+01  9.816992E-01 -1.058419E+02  6.097684E-04 4.226384E+01  8.096709E-04 2.778687E+01 
2.253757E-05 -9.827346E+01  6.260603E-04 4.079739E+01  8.878402E-01 -4.060749E+01  4.184289E-01 4.918408E+01 
1.415610E-04 1.708276E+02  7.628257E-04 2.800607E+01  4.182222E-01 4.910650E+01  8.882102E-01 -3.976059E+01 
7.112500000E+02  9.779776E-01 -9.872948E+01  1.503627E-02 -1.045799E+01  3.447389E-05 8.357030E+00  1.164381E-04 1.753982E+02 
1.500314E-02 -1.030305E+01  9.814737E-01 -1.058728E+02  6.221502E-04 4.058311E+01  7.868799E-04 2.524300E+01 
1.102407E-05 -9.467765E+01  6.128340E-04 3.965898E+01  8.879063E-01 -4.061395E+01  4.180940E-01 4.924506E+01 
1.245997E-04 -1.759884E+02  7.694175E-04 2.759441E+01  4.179811E-01 4.917257E+01  8.875528E-01 -3.980213E+01 
7.114375000E+02  9.778656E-01 -9.874296E+01  1.500071E-02 -1.040378E+01  4.534121E-05 -1.071232E+01  8.370236E-05 -1.609872E+02 
1.494952E-02 -1.036442E+01  9.816282E-01 -1.058998E+02  6.112412E-04 4.032706E+01  7.619236E-04 2.665020E+01 
1.452512E-05 -1.180287E+02  5.860196E-04 3.869654E+01  8.876662E-01 -4.063614E+01  4.183027E-01 4.933053E+01 
1.009733E-04 -1.704762E+02  7.489076E-04 2.956653E+01  4.183931E-01 4.925469E+01  8.861641E-01 -3.979781E+01 
7.116250000E+02  9.778985E-01 -9.877967E+01  1.500781E-02 -1.035947E+01  3.893664E-05 -8.508279E+00  9.932488E-05 1.780743E+02 
1.495123E-02 -1.040690E+01  9.810476E-01 -1.059129E+02  5.942556E-04 3.527566E+01  7.419268E-04 2.818139E+01 
4.805685E-05 1.923423E+01  5.862633E-04 3.707847E+01  8.875590E-01 -4.064049E+01  4.191671E-01 4.938590E+01 
1.255093E-04 -1.706068E+02  7.681316E-04 2.852879E+01  4.192444E-01 4.931300E+01  8.854480E-01 -3.969203E+01 
7.118125000E+02  9.781885E-01 -9.882223E+01  1.498153E-02 -1.047913E+01  6.555705E-05 -2.654759E+01  1.229673E-04 -1.678937E+02 
1.494052E-02 -1.032605E+01  9.814896E-01 -1.059282E+02  5.620329E-04 4.094575E+01  7.341153E-04 2.751239E+01 
3.282237E-05 -3.509269E+01  5.836649E-04 3.899350E+01  8.875604E-01 -4.065028E+01  4.196785E-01 4.933650E+01 
1.410796E-04 -1.707393E+02  7.910753E-04 2.877944E+01  4.197361E-01 4.927219E+01  8.862155E-01 -3.961288E+01 
7.120000000E+02  9.783812E-01 -9.883586E+01  1.495860E-02 -1.040831E+01  5.582673E-05 -6.120929E+01  1.144710E-04 -1.673214E+02 